
:LABEL1: Calculations in /pscratch/sd/z/zhang714/cmae_jobs/cmae-main/test_TbCo5/90_n30_regular/case
:LABEL2: on nid007114 at Mon Feb 23 04:13:21 PM PST 2026
:LABEL3: using WIEN2k_24.1 (Release 1/8/2024) in /global/homes/z/zhang714/github/wien2k/src

:LABEL4: using the command: runsp_lapw -so -p -cc 0.001 -ec 0.00001 -i 100

 Euler-Maclaurian Coulomb
 Consistent 3/8+Simpson combinations at start/end
 New Mode for Coulomb Integral
 Extension of core to zero
 LDM version in phi
 Fifth-order quadrature in outwin
 Lebedev-Laikov Grid in lapw0


            ---------
:ITE001:  1. ITERATION
            ---------

:NATO :    5 INDEPENDENT AND    6 TOTAL ATOMS IN UNITCELL
       SUBSTANCE: blebleble                                s-o calc. M||  0.10

       LATTICE                      = H   
:LAT  : LATTICE CONSTANTS=  9.34658  9.34658  7.54001
:VOL  : UNIT CELL VOLUME =     570.43781
:POT  : POTENTIAL OPTION EX_PBE EC_PBE VX_PBE VC_PBE
       MODE OF CALCULATION IS       = RELA
       SPINPOLARIZED CALCULATION
:IFFT  : FFT-parameters:   96   96   80 Factor: 2.00


   CONVERGENCE PARAMETER FOR PSEUDOCHARGE: NCON=  9
   MAXIMAL VALUE OF RMT(JATOM)*ABSK(NKK) : RK  =39.99508


:VKCOUL :  VK-COUL convergence: 0.201E-09
 Lebedev grid of          350
 :rho_min:   2.0000000000000000E-008   1.0000000000000001E-009
:VCOUL001 ATOMNUMBER=  1 Co1     VCOUL-ZERO =  0.54631E+00
:EFG001:                        EFG         =    -0.14524   *10**21  V / m**2
                               V20  TOT/SRF=     0.02223     0.03257
                               V22  TOT/SRF=    -0.06619    -0.12419
                               V22M TOT/SRF=     0.11468     0.21516
                               V21  TOT/SRF=     0.00000     0.00000
                               V21M TOT/SRF=     0.00000     0.00000

             -0.07902    0.11468    0.00000       -0.14524    0.00000    0.00000
              0.11468    0.05335    0.00000        0.00000    0.11957    0.00000
              0.00000    0.00000    0.02567        0.00000    0.00000    0.02567

         MAIN DIRECTIONS OF THE EFG   1.0000  0.5775  0.0000
                                     -0.5775  1.0000  0.0000
                                     -0.0000 -0.0000  1.0000
:ANG001:  ANGLE WITH OLD X-AXIS =        30.0

:ETA001:                         ASYMM. ETA =     0.64651


:VCOUL002 ATOMNUMBER=  2 Co1     VCOUL-ZERO =  0.54630E+00
:EFG002:                        EFG         =    -0.14525   *10**21  V / m**2
                               V20  TOT/SRF=     0.02223     0.03256
                               V22  TOT/SRF=     0.13242     0.24845
                               V22M TOT/SRF=     0.00000     0.00000
                               V21  TOT/SRF=     0.00000     0.00000
                               V21M TOT/SRF=     0.00000     0.00000

              0.11959    0.00000    0.00000        0.11959    0.00000    0.00000
              0.00000   -0.14525    0.00000        0.00000   -0.14525    0.00000
              0.00000    0.00000    0.02566        0.00000    0.00000    0.02566

         MAIN DIRECTIONS OF THE EFG   1.0000 -0.0000  0.0000
                                      0.0000  1.0000  0.0000
                                      0.0000  0.0000  1.0000
:ANG002:  ANGLE WITH OLD X-AXIS =         0.0

:ETA002:                         ASYMM. ETA =     0.64663


:VCOUL003 ATOMNUMBER=  3 Co1     VCOUL-ZERO =  0.54631E+00
:EFG003:                        EFG         =    -0.14524   *10**21  V / m**2
                               V20  TOT/SRF=     0.02223     0.03257
                               V22  TOT/SRF=    -0.06619    -0.12419
                               V22M TOT/SRF=    -0.11468    -0.21516
                               V21  TOT/SRF=     0.00000     0.00000
                               V21M TOT/SRF=     0.00000     0.00000

             -0.07902   -0.11468    0.00000       -0.14524    0.00000    0.00000
             -0.11468    0.05335    0.00000        0.00000    0.11957    0.00000
              0.00000    0.00000    0.02567        0.00000    0.00000    0.02567

         MAIN DIRECTIONS OF THE EFG   1.0000 -0.5775  0.0000
                                      0.5775  1.0000  0.0000
                                     -0.0000 -0.0000  1.0000
:ANG003:  ANGLE WITH OLD X-AXIS =        30.0

:ETA003:                         ASYMM. ETA =     0.64650


:VCOUL004 ATOMNUMBER=  4 Co2     VCOUL-ZERO =  0.53118E+00
:EFG004:                        EFG         =     0.06800   *10**21  V / m**2
                               V20  TOT/SRF=     0.05889     0.14444
                               V22  TOT/SRF=    -0.00000    -0.00000
                               V22M TOT/SRF=    -0.00000    -0.00000
                               V21  TOT/SRF=     0.00000     0.00000
                               V21M TOT/SRF=     0.00000     0.00000

             -0.03400   -0.00000    0.00000       -0.03400    0.00000    0.00000
             -0.00000   -0.03400    0.00000        0.00000   -0.03400    0.00000
              0.00000    0.00000    0.06800        0.00000    0.00000    0.06800

         MAIN DIRECTIONS OF THE EFG   1.0000 -0.0139  0.0000
                                      0.0139  1.0000  0.0000
                                     -0.0000 -0.0000  1.0000
:ANG004:  ANGLE WITH OLD X-AXIS =         0.8

:ETA004:                         ASYMM. ETA =     0.00007


:VCOUL005 ATOMNUMBER=  5 Tb1     VCOUL-ZERO =  0.46773E+00
:EFG005:                        EFG         =    -0.06011   *10**21  V / m**2
                               V20  TOT/SRF=    -0.05205    -0.10149
                               V22  TOT/SRF=    -0.00001    -0.00000
                               V22M TOT/SRF=     0.00000     0.00000
                               V21  TOT/SRF=     0.00000     0.00000
                               V21M TOT/SRF=     0.00000     0.00000

              0.03004    0.00000    0.00000        0.03004    0.00000    0.00000
              0.00000    0.03006    0.00000        0.00000    0.03006    0.00000
              0.00000    0.00000   -0.06011        0.00000    0.00000   -0.06011

         MAIN DIRECTIONS OF THE EFG   1.0000  0.0031  0.0000
                                     -0.0031  1.0000  0.0000
                                     -0.0000 -0.0000  1.0000
:ANG005:  ANGLE WITH OLD X-AXIS =         0.2

:ETA005:                         ASYMM. ETA =     0.00030


     HELLMANN-FEYNMAN-FORCE IN mRy/a.u. = |F|  Fx       Fy             Fz
:FHF001:   1.ATOM      0.000000000000      0.000000000000      0.000000000000      0.000000000000

     HELLMANN-FEYNMAN-FORCE IN mRy/a.u. = |F|  Fx       Fy             Fz
:FHF002:   2.ATOM      0.000000000000      0.000000000000      0.000000000000      0.000000000000

     HELLMANN-FEYNMAN-FORCE IN mRy/a.u. = |F|  Fx       Fy             Fz
:FHF003:   3.ATOM      0.000000000000      0.000000000000      0.000000000000      0.000000000000

     HELLMANN-FEYNMAN-FORCE IN mRy/a.u. = |F|  Fx       Fy             Fz
:FHF004:   4.ATOM      0.040312446454      0.040312443443      0.000015581616      0.000000000000

     HELLMANN-FEYNMAN-FORCE IN mRy/a.u. = |F|  Fx       Fy             Fz
:FHF005:   5.ATOM      0.000000000000      0.000000000000      0.000000000000      0.000000000000

:FIT001: LUSE= 13 SIGMA OF V-XC FIT FOR ATOM  1  0.7059986E-03
:FIT001: LUSE= 13 SIGMA OF V-XC FIT FOR ATOM  1  0.9942214E-03
:FIT002: LUSE= 13 SIGMA OF V-XC FIT FOR ATOM  2  0.5570787E-03
:FIT002: LUSE= 13 SIGMA OF V-XC FIT FOR ATOM  2  0.1019206E-02
:FIT003: LUSE= 13 SIGMA OF V-XC FIT FOR ATOM  3  0.7059987E-03
:FIT003: LUSE= 13 SIGMA OF V-XC FIT FOR ATOM  3  0.9942212E-03
:FIT004: LUSE= 13 SIGMA OF V-XC FIT FOR ATOM  4  0.7020062E-03
:FIT004: LUSE= 13 SIGMA OF V-XC FIT FOR ATOM  4  0.8029772E-03
:FIT005: LUSE= 13 SIGMA OF V-XC FIT FOR ATOM  5  0.3583912E-03
:FIT005: LUSE= 13 SIGMA OF V-XC FIT FOR ATOM  5  0.5521157E-03
:DEN  : DENSITY INTEGRAL  =        -14939.17243347   (Ry)
       ELS_POTENTIAL_AT Z=0 and Z=0.5:  -0.82610  -0.42284
       ELS_POTENTIAL_AT Y=0 and Y=0.5:  -0.46384  -0.34632
:VZERO:v0,v0c,v0x  -1.75964  -0.82610  -0.93353 v5,v5c,v5x  -1.30842  -0.42284  -0.88558
:VZERY:v0,v0c,v0x  -1.32067  -0.46384  -0.85683 v5,v5c,v5x  -1.27041  -0.34632  -0.92409
:VZERX:v0,v0c,v0x  -1.32067  -0.46384  -0.85683 v5,v5c,v5x  -1.27038  -0.34630  -0.92409
:LMAX-WF:   10   Non-Spherical LMAX:   6

          ATOMIC SPHERE DEPENDENT PARAMETERS FOR ATOM  Co1       
:e__0001: OVERALL ENERGY PARAMETER IS    0.3000
          OVERALL BASIS SET ON ATOM IS LAPW
:E1_0001: E( 1)=    0.3000
             APW+lo
:E1_0001: E( 1)=   -3.7891   E(BOTTOM)=   -3.824   E(TOP)=   -3.754  1  2   175
             LOCAL ORBITAL
:E2_0001: E( 2)=    0.3790   E(BOTTOM)=    0.141   E(TOP)=    0.617  0  1   122
             APW+lo
:E0_0001: E( 0)=    0.3000
             APW+lo

          ATOMIC SPHERE DEPENDENT PARAMETERS FOR ATOM  Co1       
:e__0002: OVERALL ENERGY PARAMETER IS    0.3000
          OVERALL BASIS SET ON ATOM IS LAPW
:E1_0002: E( 1)=    0.3000
             APW+lo
:E1_0002: E( 1)=   -3.7891   E(BOTTOM)=   -3.824   E(TOP)=   -3.754  1  2   180
             LOCAL ORBITAL
:E2_0002: E( 2)=    0.3790   E(BOTTOM)=    0.141   E(TOP)=    0.617  0  1   125
             APW+lo
:E0_0002: E( 0)=    0.3000
             APW+lo

          ATOMIC SPHERE DEPENDENT PARAMETERS FOR ATOM  Co1       
:e__0003: OVERALL ENERGY PARAMETER IS    0.3000
          OVERALL BASIS SET ON ATOM IS LAPW
:E1_0003: E( 1)=    0.3000
             APW+lo
:E1_0003: E( 1)=   -3.7891   E(BOTTOM)=   -3.824   E(TOP)=   -3.754  1  2   176
             LOCAL ORBITAL
:E2_0003: E( 2)=    0.3790   E(BOTTOM)=    0.141   E(TOP)=    0.617  0  1   123
             APW+lo
:E0_0003: E( 0)=    0.3000
             APW+lo

          ATOMIC SPHERE DEPENDENT PARAMETERS FOR ATOM  Co2       
:e__0004: OVERALL ENERGY PARAMETER IS    0.3000
          OVERALL BASIS SET ON ATOM IS LAPW
:E1_0004: E( 1)=    0.3000
             APW+lo
:E1_0004: E( 1)=   -3.8024   E(BOTTOM)=   -3.838   E(TOP)=   -3.767  1  2   175
             LOCAL ORBITAL
:E2_0004: E( 2)=    0.3654   E(BOTTOM)=    0.127   E(TOP)=    0.604  0  1   129
             APW+lo
:E0_0004: E( 0)=    0.3000
             APW+lo

          ATOMIC SPHERE DEPENDENT PARAMETERS FOR ATOM  Tb1       
:e__0005: OVERALL ENERGY PARAMETER IS    0.3000
          OVERALL BASIS SET ON ATOM IS LAPW
:E0_0005: E( 0)=    0.3000
             APW+lo
:E0_0005: E( 0)=   -2.6516   E(BOTTOM)=   -2.847   E(TOP)=   -2.456  4  5   183
             LOCAL ORBITAL
:E1_0005: E( 1)=    0.7000
             APW+lo
:E1_0005: E( 1)=   -0.9352   E(BOTTOM)=   -1.369   E(TOP)=   -0.502  3  4   172
             LOCAL ORBITAL
:E3_0005: E( 3)=    0.4519   E(BOTTOM)=    0.388   E(TOP)=    0.515  0  1   113
             APW+lo
:E2_0005: E( 2)=    0.4073   E(BOTTOM)=    0.407   E(TOP)= -520.000  2 -1    93
             APW+lo

       K=  0.031250  0.031250  0.029412            1
:RKM  : MATRIX SIZE   653LOs:  80  RKM= 9.00  WEIGHT= 2.00  PGR:    
       EIGENVALUES ARE:
:EIG00001:      -3.8043247   -3.7984230   -3.7965091   -3.7943958   -3.7943544
:EIG00006:      -3.7939373   -3.7939195   -3.7833740   -3.7832977   -3.7819721
:EIG00011:      -3.7819385   -3.7782177   -3.7750241   -3.7749660   -3.7717093
:EIG00016:      -2.6165642   -0.9166292   -0.9165443   -0.8905846   -0.0051009
:EIG00021:       0.2046593    0.2842850    0.2872593    0.2876139    0.2908442
:EIG00026:       0.2920457    0.3087558    0.3093162    0.3216690    0.3243896
:EIG00031:       0.3556781    0.3563207    0.3920827    0.3927716    0.4169286
:EIG00036:       0.4293185    0.4295831    0.4516931    0.4553773    0.4563058
:EIG00041:       0.4569010    0.4613485    0.4627447    0.4631793    0.4636948
:EIG00046:       0.4665144    0.4667835    0.4687456    0.4689442    0.5183732

:EIG00051:       0.5211531    0.5303324    0.6205081    0.6790488    0.6812145
:EIG00056:       0.7060073    0.7739650    0.7995664    0.8157118    0.9925817
:EIG00061:       0.9954386    1.1848239    1.2564635    1.2607452    1.3399588
:EIG00066:       1.3692699    1.4115884    1.4195382    1.4578632    1.4845894
:EIG00071:       1.4997659    1.6326807    1.6471719    1.7417384    1.7430471
:EIG00076:       1.8955357    1.9068696    2.1061370    2.1128699    2.2573455
:EIG00081:       2.3075990    2.3223533    2.3273471    2.3691336    2.3825113
:EIG00086:       2.4053275    2.4455188    2.4697439    2.5146897    2.5153898
:EIG00091:       2.6767295    2.7799351    2.7886356    2.8496032    2.9145939
:EIG00096:       2.9532677    2.9686484    2.9723553    2.9888875    3.0109116

:EIG00101:       3.0331444    3.0524197    3.1432381    3.1565927    3.2241681
:EIG00106:       3.2522132    3.2715034    3.2817923    3.3643369    3.3671159
:EIG00111:       3.4338731    3.4941847    3.5110124    3.5733490    3.5790894
:EIG00116:       3.6128575    3.6664438    3.7242708    3.7440341    3.7886206
:EIG00121:       3.7926940    3.8462189    4.0023581    4.0398413    4.0684770
:EIG00126:       4.0697309    4.1193215    4.1661309    4.2144842    4.2649691
:EIG00131:       4.3363526    4.3422602    4.3967079    4.4214732    4.4294061
:EIG00136:       4.4512020    4.4599813    4.4712333    4.5899057    4.5954866
:EIG00141:       4.6059007    4.6178789    4.6629028    4.6875921    4.7327898
:EIG00146:       4.7407385    4.7861170    4.8050793    4.8187322    4.8289455

:EIG00151:       4.8426046    4.8963707    4.9071782    4.9576151    4.9704254
:EIG00156:       5.0124964    5.0423926    5.0537208    5.1085765    5.1689700
:EIG00161:       5.1770506    5.2038988    5.2350777    5.3039588    5.3497966
:EIG00166:       5.3602985    5.4045648    5.4692648    5.4742840    5.4809667
       ********************************************************

:KPT   :      NUMBER OF K-POINTS:    2176
:LMAX-WF:   10   Non-Spherical LMAX:   6

          ATOMIC SPHERE DEPENDENT PARAMETERS FOR ATOM  Co1       
:e__0001: OVERALL ENERGY PARAMETER IS    0.3000
          OVERALL BASIS SET ON ATOM IS LAPW
:E1_0001: E( 1)=    0.3000
             APW+lo
:E1_0001: E( 1)=   -3.5545   E(BOTTOM)=   -3.593   E(TOP)=   -3.516  1  2   205
             LOCAL ORBITAL
:E2_0001: E( 2)=    0.5878   E(BOTTOM)=    0.323   E(TOP)=    0.852  0  1   131
             APW+lo
:E0_0001: E( 0)=    0.3000
             APW+lo

          ATOMIC SPHERE DEPENDENT PARAMETERS FOR ATOM  Co1       
:e__0002: OVERALL ENERGY PARAMETER IS    0.3000
          OVERALL BASIS SET ON ATOM IS LAPW
:E1_0002: E( 1)=    0.3000
             APW+lo
:E1_0002: E( 1)=   -3.5545   E(BOTTOM)=   -3.593   E(TOP)=   -3.516  1  2   202
             LOCAL ORBITAL
:E2_0002: E( 2)=    0.5878   E(BOTTOM)=    0.323   E(TOP)=    0.852  0  1   128
             APW+lo
:E0_0002: E( 0)=    0.3000
             APW+lo

          ATOMIC SPHERE DEPENDENT PARAMETERS FOR ATOM  Co1       
:e__0003: OVERALL ENERGY PARAMETER IS    0.3000
          OVERALL BASIS SET ON ATOM IS LAPW
:E1_0003: E( 1)=    0.3000
             APW+lo
:E1_0003: E( 1)=   -3.5545   E(BOTTOM)=   -3.593   E(TOP)=   -3.516  1  2   203
             LOCAL ORBITAL
:E2_0003: E( 2)=    0.5878   E(BOTTOM)=    0.323   E(TOP)=    0.852  0  1   129
             APW+lo
:E0_0003: E( 0)=    0.3000
             APW+lo

          ATOMIC SPHERE DEPENDENT PARAMETERS FOR ATOM  Co2       
:e__0004: OVERALL ENERGY PARAMETER IS    0.3000
          OVERALL BASIS SET ON ATOM IS LAPW
:E1_0004: E( 1)=    0.3000
             APW+lo
:E1_0004: E( 1)=   -3.5677   E(BOTTOM)=   -3.606   E(TOP)=   -3.530  1  2   198
             LOCAL ORBITAL
:E2_0004: E( 2)=    0.5745   E(BOTTOM)=    0.310   E(TOP)=    0.839  0  1   130
             APW+lo
:E0_0004: E( 0)=    0.3000
             APW+lo

          ATOMIC SPHERE DEPENDENT PARAMETERS FOR ATOM  Tb1       
:e__0005: OVERALL ENERGY PARAMETER IS    0.3000
          OVERALL BASIS SET ON ATOM IS LAPW
:E0_0005: E( 0)=    0.3000
             APW+lo
:E0_0005: E( 0)=   -2.4426   E(BOTTOM)=   -2.655   E(TOP)=   -2.230  4  5   208
             LOCAL ORBITAL
:E1_0005: E( 1)=    0.7000
             APW+lo
:E1_0005: E( 1)=   -0.7666   E(BOTTOM)=   -1.226   E(TOP)=   -0.307  3  4   195
             LOCAL ORBITAL
:E3_0005: E( 3)=    0.7929   E(BOTTOM)=    0.711   E(TOP)=    0.875  0  1   144
             APW+lo
:E2_0005: E( 2)=    0.5095   E(BOTTOM)=    0.510   E(TOP)= -520.000  2 -1    98
             APW+lo

       K=  0.031250  0.031250  0.029412            1
:RKM  : MATRIX SIZE   653LOs:  80  RKM= 9.00  WEIGHT= 2.00  PGR:    
       EIGENVALUES ARE:
:EIG00001:      -3.5701486   -3.5638232   -3.5619158   -3.5590569   -3.5590192
:EIG00006:      -3.5586372   -3.5586151   -3.5480035   -3.5479227   -3.5466122
:EIG00011:      -3.5465705   -3.5421557   -3.5392130   -3.5391456   -3.5357531
:EIG00016:      -2.4057311   -0.7565373   -0.7564166   -0.7269629    0.0592125
:EIG00021:       0.3540021    0.4093273    0.4178237    0.4505007    0.4623265
:EIG00026:       0.4624941    0.4677051    0.4704720    0.4938443    0.4942255
:EIG00031:       0.5434633    0.5441099    0.5791927    0.5804898    0.6251345
:EIG00036:       0.6360807    0.6364614    0.6588257    0.6588806    0.6712885
:EIG00041:       0.6806210    0.6808513    0.7068979    0.7344473    0.7469944
:EIG00046:       0.7550151    0.7569862    0.7884413    0.7917177    0.8024525

:EIG00051:       0.8093499    0.8094668    0.8240349    0.8330442    0.8379611
:EIG00056:       0.8666445    0.8830625    0.8981658    0.9322197    1.1016129
:EIG00061:       1.1043306    1.3053985    1.3664303    1.3718698    1.4403681
:EIG00066:       1.4628396    1.5052847    1.5080696    1.5345805    1.5870315
:EIG00071:       1.5943444    1.7139624    1.7333251    1.8023263    1.8108264
:EIG00076:       1.9709259    1.9818871    2.1962938    2.2019879    2.3269137
:EIG00081:       2.3523291    2.3665470    2.3816074    2.4296819    2.4475187
:EIG00086:       2.4694809    2.5113588    2.5373090    2.5829765    2.5835907
:EIG00091:       2.7202350    2.8349832    2.8457363    2.8894651    2.9821622
:EIG00096:       3.0170315    3.0506258    3.0593160    3.0688418    3.0728920

:EIG00101:       3.1042535    3.1139063    3.1864306    3.2004104    3.2888841
:EIG00106:       3.3135587    3.3163091    3.3340539    3.4300853    3.4329695
:EIG00111:       3.4948419    3.5518373    3.5778340    3.6326443    3.6362272
:EIG00116:       3.6686112    3.7265214    3.7823871    3.8084140    3.8543942
:EIG00121:       3.8553236    3.9183063    4.0598908    4.1098190    4.1358214
:EIG00126:       4.1380974    4.1707217    4.2225680    4.2803832    4.3451748
:EIG00131:       4.3965090    4.4029826    4.4542873    4.4809314    4.4862922
:EIG00136:       4.5138827    4.5336242    4.5371180    4.6520474    4.6571123
:EIG00141:       4.6649543    4.6757777    4.7214825    4.7475307    4.7797137
:EIG00146:       4.7874202    4.8336060    4.8569183    4.8645442    4.8797116

:EIG00151:       4.8909934    4.9495786    4.9641172    5.0173619    5.0299048
:EIG00156:       5.0748097    5.0929556    5.1053207    5.1768109    5.2287869
:EIG00161:       5.2385782    5.2699619    5.2959874    5.3662393    5.4229869
:EIG00166:       5.4355888    5.4638367
       ********************************************************

:KPT   :      NUMBER OF K-POINTS:    2176
  Potential not averaged when calculating dV/dr
  90.0 -30.0 angle (M,z), angle (M,x) deg

        SPIN-ORBIT EIGENVALUES:
     K=  0.031250  0.031250  0.029412            1
      MATRIX SIZE=  337   WEIGHT= 2.00
     EIGENVALUES ARE:
          -3.8561399   -3.8543026   -3.8446618   -3.8392196   -3.8362901
          -3.8133893   -3.8122259   -3.8084523   -3.7975858   -3.7943211
          -3.7528930   -3.7516161   -3.7412491   -3.7350689   -3.7327800
          -3.5884747   -3.5862474   -3.5768909   -3.5715818   -3.5676272
          -3.5458387   -3.5444229   -3.5425348   -3.5297195   -3.5259549
          -3.5179387   -3.5168364   -3.5063503   -3.4996501   -3.4973502
          -2.6165641   -2.4057311   -1.0756100   -1.0288877   -0.8045435
          -0.7380181   -0.6973535   -0.6469572   -0.0050908    0.0592253

           0.2045839    0.2840130    0.2870799    0.2874445    0.2907753
           0.2921226    0.3086197    0.3091628    0.3215526    0.3241097
           0.3538705    0.3553771    0.3562245    0.3920467    0.3928395
           0.4091575    0.4158435    0.4175891    0.4290761    0.4299711
           0.4378572    0.4460495    0.4464538    0.4497630    0.4546135
           0.4555756    0.4564610    0.4598156    0.4619545    0.4621434
           0.4656195    0.4672227    0.4677496    0.4687659    0.4708693
           0.4816269    0.4902849    0.4942982    0.4946161    0.5187135

           0.5211814    0.5308810    0.5433659    0.5440646    0.5792174
           0.5805009    0.6203748    0.6241596    0.6362721    0.6371654
           0.6589216    0.6591465    0.6705742    0.6780747    0.6811480
           0.6816294    0.6822959    0.7059831    0.7068506    0.7348416
           0.7467025    0.7546540    0.7570310    0.7742768    0.7804946
           0.7865276    0.8004136    0.8011662    0.8113014    0.8159948
           0.8207865    0.8280488    0.8363619    0.8411817    0.8676768
           0.8849676    0.8994589    0.9322385    0.9923573    0.9951373

           1.1014626    1.1042058    1.1848791    1.2561531    1.2603797
           1.3054246    1.3397919    1.3659437    1.3701571    1.3724751
           1.4116019    1.4192130    1.4404599    1.4564183    1.4630103
           1.4844107    1.4980029    1.5054672    1.5090591    1.5357750
           1.5869654    1.5943571    1.6328539    1.6473448    1.7139148
           1.7327319    1.7429039    1.7439066    1.8023965    1.8101958
           1.8968081
       ********************************************************
:GAP (global)   :    0.0    Ry =     0.0   eV (metal)
:GAP (this spin):    0.0    Ry =     0.0   eV (metal)
         Bandranges (emin - emax) and occupancy:
:BAN00087:  87    0.540620    0.623849  1.00000000
:BAN00088:  88    0.541938    0.633288  1.00000000
:BAN00089:  89    0.564909    0.640903  1.00000000
:BAN00090:  90    0.577172    0.648434  1.00000000
:BAN00091:  91    0.579467    0.659164  0.99103475
:BAN00092:  92    0.586885    0.659350  0.97227666
:BAN00093:  93    0.615552    0.670717  0.92977884
:BAN00094:  94    0.620820    0.678780  0.79909752
:BAN00095:  95    0.627128    0.681148  0.27641041
:BAN00096:  96    0.645361    0.681629  0.03114642
:BAN00097:  97    0.653117    0.687293  0.00025528
:BAN00098:  98    0.665577    0.705983  0.00000000
:BAN00099:  99    0.670520    0.728818  0.00000000
:BAN00100: 100    0.679952    0.736516  0.00000000
:BAN00101: 101    0.687263    0.748347  0.00000000
:BAN00102: 102    0.698040    0.773892  0.00000000
        Energy to separate low and high energystates:   -0.05646


:NOE  : NUMBER OF ELECTRONS          =   94.000

:FER  : F E R M I - ENERGY(TETRAH.M.)=   0.6554613059
:GMA  : POTENTIAL AND CHARGE CUT-OFF  16.00 Ry**.5
 
:POS001: ATOM   -1 X,Y,Z = 0.50000 0.00000 0.50000  MULT= 1  ZZ= 27.000  Co1
 
       LMMAX 16
       LM=   0 0  2 0  2 2 -2 2  4 0  4 2 -4 2  4 4 -4 4  6 0  6 2 -6 2  6 4 -6 4  6 6 -6 6
 
:CHA001: TOTAL VALENCE CHARGE INSIDE SPHERE   1 =   7.9794    (RMT=  2.3000 )
:PCS001: PARTIAL CHARGES SPHERE =  1 S,P,D,F,PX,PY,PZ,D-Z2,D-X2Y2,D-XY,D-XZ,D-YZ
:QTL001: 0.2407 3.2111 4.5098 0.0131 1.0557 1.0806 1.0751 0.8955 0.8980 0.9069 0.9088 0.9006
        Q-s-low E-s-low   Q-p-low E-p-low   Q-d-low E-d-low   Q-f-low E-f-low
:EPL001:  0.0000 10.0000    2.9952 -3.7814    0.0000 10.0000    0.0000 10.0000
        Q-s-hi  E-s-hi    Q-p-hi  E-p-hi    Q-d-hi  E-d-hi    Q-f-hi  E-f-hi
:EPH001:  0.2402  0.2544    0.2157  0.3991    4.5092  0.4001    0.0130  0.3936
 
                      QXX         QXY         QYY         QZZ       UP TO R
:VZZ001:             1.67747    -2.50296    -1.22714    -0.45034       2.300
 
:POS002: ATOM   -2 X,Y,Z = 0.00000 0.50000 0.50000  MULT= 1  ZZ= 27.000  Co1
 
       LMMAX 16
       LM=   0 0  2 0  2 2 -2 2  4 0  4 2 -4 2  4 4 -4 4  6 0  6 2 -6 2  6 4 -6 4  6 6 -6 6
 
:CHA002: TOTAL VALENCE CHARGE INSIDE SPHERE   2 =   7.9796    (RMT=  2.3000 )
:PCS002: PARTIAL CHARGES SPHERE =  2 S,P,D,F,PX,PY,PZ,D-Z2,D-X2Y2,D-XY,D-XZ,D-YZ
:QTL002: 0.2405 3.2109 4.5099 0.0132 1.0929 1.0433 1.0749 0.8952 0.9109 0.8942 0.8964 0.9127
        Q-s-low E-s-low   Q-p-low E-p-low   Q-d-low E-d-low   Q-f-low E-f-low
:EPL002:  0.0000 10.0000    2.9952 -3.7814    0.0000 10.0000    0.0000 10.0000
        Q-s-hi  E-s-hi    Q-p-hi  E-p-hi    Q-d-hi  E-d-hi    Q-f-hi  E-f-hi
:EPH002:  0.2397  0.2544    0.2156  0.3992    4.5093  0.4001    0.0132  0.3940
 
                      QXX         QXY         QYY         QZZ       UP TO R
:VZZ002:            -2.65658     0.00403     3.11307    -0.45649       2.300
 
:POS003: ATOM   -3 X,Y,Z = 0.50000 0.50000 0.50000  MULT= 1  ZZ= 27.000  Co1
 
       LMMAX 16
       LM=   0 0  2 0  2 2 -2 2  4 0  4 2 -4 2  4 4 -4 4  6 0  6 2 -6 2  6 4 -6 4  6 6 -6 6
 
:CHA003: TOTAL VALENCE CHARGE INSIDE SPHERE   3 =   7.9796    (RMT=  2.3000 )
:PCS003: PARTIAL CHARGES SPHERE =  3 S,P,D,F,PX,PY,PZ,D-Z2,D-X2Y2,D-XY,D-XZ,D-YZ
:QTL003: 0.2405 3.2110 4.5098 0.0130 1.0559 1.0804 1.0746 0.8951 0.8981 0.9068 0.9088 0.9007
        Q-s-low E-s-low   Q-p-low E-p-low   Q-d-low E-d-low   Q-f-low E-f-low
:EPL003:  0.0000 10.0000    2.9952 -3.7814    0.0000 10.0000    0.0000 10.0000
        Q-s-hi  E-s-hi    Q-p-hi  E-p-hi    Q-d-hi  E-d-hi    Q-f-hi  E-f-hi
:EPH003:  0.2399  0.2544    0.2157  0.3992    4.5094  0.4001    0.0130  0.3937
 
                      QXX         QXY         QYY         QZZ       UP TO R
:VZZ003:             1.66739     2.50455    -1.22846    -0.43890       2.300
 
:POS004: ATOM   -4 X,Y,Z = 0.33333 0.66667 0.00000  MULT= 2  ZZ= 27.000  Co2
 
       LMMAX 28
       LM=   0 0  1 1 -1 1  2 0  2 2 -2 2  3 1 -3 1  3 3 -3 3  4 0  4 2 -4 2  4 4 -4 4  5 1 -5 1
         5 3 -5 3  5 5 -5 5  6 0  6 2 -6 2  6 4 -6 4  6 6 -6 6
 
:CHA004: TOTAL VALENCE CHARGE INSIDE SPHERE   4 =   7.9973    (RMT=  2.3000 )
:PCS004: PARTIAL CHARGES SPHERE =  4 S,P,D,F,PX,PY,PZ,D-Z2,D-X2Y2,D-XY,D-XZ,D-YZ
:QTL004: 0.2509 3.2117 4.5181 0.0128 1.0608 1.0606 1.0906 0.9113 0.9097 0.9096 0.8938 0.8940
        Q-s-low E-s-low   Q-p-low E-p-low   Q-d-low E-d-low   Q-f-low E-f-low
:EPL004:  0.0024 -1.0004    2.9959 -3.7933    0.0025 -1.2349    0.0000 10.0000
        Q-s-hi  E-s-hi    Q-p-hi  E-p-hi    Q-d-hi  E-d-hi    Q-f-hi  E-f-hi
:EPH004:  0.2492  0.2741    0.2152  0.4092    4.5157  0.3870    0.0126  0.4036
 
                      QXX         QXY         QYY         QZZ       UP TO R
:VZZ004:             1.11155    -0.00390     1.11170    -2.22327       2.300
 
:POS005: ATOM   -5 X,Y,Z = 0.00000 0.00000 0.00000  MULT= 1  ZZ= 65.000  Tb1
 
       LMMAX 16
       LM=   0 0  2 0  2 2 -2 2  4 0  4 2 -4 2  4 4 -4 4  6 0  6 2 -6 2  6 4 -6 4  6 6 -6 6
 
:CHA005: TOTAL VALENCE CHARGE INSIDE SPHERE   5 =  11.0144    (RMT=  2.5000 )
:PCS005: PARTIAL CHARGES SPHERE =  5 S,P,D,F,PX,PY,PZ,D-Z2,D-X2Y2,D-XY,D-XZ,D-YZ
:QTL005: 1.0470 2.8704 0.2268 6.8676 0.9590 0.9592 0.9519 0.0304 0.0626 0.0621 0.0355 0.0359
        Q-s-low E-s-low   Q-p-low E-p-low   Q-d-low E-d-low   Q-f-low E-f-low
:EPL005:  0.9856 -2.6163    2.7791 -0.9175    0.0000 10.0000    0.0000 10.0000
        Q-s-hi  E-s-hi    Q-p-hi  E-p-hi    Q-d-hi  E-d-hi    Q-f-hi  E-f-hi
:EPH005:  0.0621  0.3428    0.0914  0.3770    0.2268  0.4329    6.8676  0.4622
 
                      QXX         QXY         QYY         QZZ       UP TO R
:VZZ005:            -2.41916    -0.36934    -2.94154     5.36069       2.500
 
:CHA  : TOTAL VALENCE CHARGE INSIDE UNIT CELL =      54.482470
 
:SUM  : SUM OF EIGENVALUES =         -47.979479797
 
:GAP (global)   :    0.0    Ry =     0.0   eV (metal)
:GAP (this spin):    0.0    Ry =     0.0   eV (metal)
         Bandranges (emin - emax) and occupancy:
:BAN00087:  87    0.540620    0.623849  1.00000000
:BAN00088:  88    0.541938    0.633288  1.00000000
:BAN00089:  89    0.564909    0.640903  1.00000000
:BAN00090:  90    0.577172    0.648434  1.00000000
:BAN00091:  91    0.579467    0.659164  0.99103475
:BAN00092:  92    0.586885    0.659350  0.97227666
:BAN00093:  93    0.615552    0.670717  0.92977884
:BAN00094:  94    0.620820    0.678780  0.79909752
:BAN00095:  95    0.627128    0.681148  0.27641041
:BAN00096:  96    0.645361    0.681629  0.03114642
:BAN00097:  97    0.653117    0.687293  0.00025528
:BAN00098:  98    0.665577    0.705983  0.00000000
:BAN00099:  99    0.670520    0.728818  0.00000000
:BAN00100: 100    0.679952    0.736516  0.00000000
:BAN00101: 101    0.687263    0.748347  0.00000000
:BAN00102: 102    0.698040    0.773892  0.00000000
        Energy to separate low and high energystates:   -0.05646


:NOE  : NUMBER OF ELECTRONS          =   94.000

:FER  : F E R M I - ENERGY(TETRAH.M.)=   0.6554613059
:GMA  : POTENTIAL AND CHARGE CUT-OFF  16.00 Ry**.5
 
:POS001: ATOM   -1 X,Y,Z = 0.50000 0.00000 0.50000  MULT= 1  ZZ= 27.000  Co1
 
       LMMAX 16
       LM=   0 0  2 0  2 2 -2 2  4 0  4 2 -4 2  4 4 -4 4  6 0  6 2 -6 2  6 4 -6 4  6 6 -6 6
 
:CHA001: TOTAL VALENCE CHARGE INSIDE SPHERE   1 =   6.1761    (RMT=  2.3000 )
:PCS001: PARTIAL CHARGES SPHERE =  1 S,P,D,F,PX,PY,PZ,D-Z2,D-X2Y2,D-XY,D-XZ,D-YZ
:QTL001: 0.2404 3.2249 2.6934 0.0130 1.0611 1.0844 1.0795 0.5811 0.5504 0.5129 0.5071 0.5419
        Q-s-low E-s-low   Q-p-low E-p-low   Q-d-low E-d-low   Q-f-low E-f-low
:EPL001:  0.0000 10.0000    2.9952 -3.5459    0.0000 10.0000    0.0000 10.0000
        Q-s-hi  E-s-hi    Q-p-hi  E-p-hi    Q-d-hi  E-d-hi    Q-f-hi  E-f-hi
:EPH001:  0.2395  0.3163    0.2299  0.4747    2.6930  0.5354    0.0128  0.5336
 
                      QXX         QXY         QYY         QZZ       UP TO R
:VZZ001:             2.01664    -1.82046    -0.07578    -1.94086       2.300
 
:POS002: ATOM   -2 X,Y,Z = 0.00000 0.50000 0.50000  MULT= 1  ZZ= 27.000  Co1
 
       LMMAX 16
       LM=   0 0  2 0  2 2 -2 2  4 0  4 2 -4 2  4 4 -4 4  6 0  6 2 -6 2  6 4 -6 4  6 6 -6 6
 
:CHA002: TOTAL VALENCE CHARGE INSIDE SPHERE   2 =   6.1757    (RMT=  2.3000 )
:PCS002: PARTIAL CHARGES SPHERE =  2 S,P,D,F,PX,PY,PZ,D-Z2,D-X2Y2,D-XY,D-XZ,D-YZ
:QTL002: 0.2402 3.2253 2.6937 0.0131 1.0962 1.0495 1.0796 0.5813 0.4951 0.5687 0.5594 0.4891
        Q-s-low E-s-low   Q-p-low E-p-low   Q-d-low E-d-low   Q-f-low E-f-low
:EPL002:  0.0000 10.0000    2.9952 -3.5459    0.0000 10.0000    0.0000 10.0000
        Q-s-hi  E-s-hi    Q-p-hi  E-p-hi    Q-d-hi  E-d-hi    Q-f-hi  E-f-hi
:EPH002:  0.2395  0.3164    0.2304  0.4747    2.6925  0.5353    0.0128  0.5337
 
                      QXX         QXY         QYY         QZZ       UP TO R
:VZZ002:            -1.17154     0.03476     3.09293    -1.92145       2.300
 
:POS003: ATOM   -3 X,Y,Z = 0.50000 0.50000 0.50000  MULT= 1  ZZ= 27.000  Co1
 
       LMMAX 16
       LM=   0 0  2 0  2 2 -2 2  4 0  4 2 -4 2  4 4 -4 4  6 0  6 2 -6 2  6 4 -6 4  6 6 -6 6
 
:CHA003: TOTAL VALENCE CHARGE INSIDE SPHERE   3 =   6.1754    (RMT=  2.3000 )
:PCS003: PARTIAL CHARGES SPHERE =  3 S,P,D,F,PX,PY,PZ,D-Z2,D-X2Y2,D-XY,D-XZ,D-YZ
:QTL003: 0.2405 3.2253 2.6934 0.0130 1.0611 1.0846 1.0794 0.5813 0.5500 0.5131 0.5071 0.5415
        Q-s-low E-s-low   Q-p-low E-p-low   Q-d-low E-d-low   Q-f-low E-f-low
:EPL003:  0.0000 10.0000    2.9952 -3.5459    0.0000 10.0000    0.0000 10.0000
        Q-s-hi  E-s-hi    Q-p-hi  E-p-hi    Q-d-hi  E-d-hi    Q-f-hi  E-f-hi
:EPH003:  0.2395  0.3164    0.2302  0.4747    2.6924  0.5353    0.0129  0.5337
 
                      QXX         QXY         QYY         QZZ       UP TO R
:VZZ003:             1.99781     1.85730    -0.05399    -1.94385       2.300
 
:POS004: ATOM   -4 X,Y,Z = 0.33333 0.66667 0.00000  MULT= 2  ZZ= 27.000  Co2
 
       LMMAX 28
       LM=   0 0  1 1 -1 1  2 0  2 2 -2 2  3 1 -3 1  3 3 -3 3  4 0  4 2 -4 2  4 4 -4 4  5 1 -5 1
         5 3 -5 3  5 5 -5 5  6 0  6 2 -6 2  6 4 -6 4  6 6 -6 6
 
:CHA004: TOTAL VALENCE CHARGE INSIDE SPHERE   4 =   6.4387    (RMT=  2.3000 )
:PCS004: PARTIAL CHARGES SPHERE =  4 S,P,D,F,PX,PY,PZ,D-Z2,D-X2Y2,D-XY,D-XZ,D-YZ
:QTL004: 0.2335 3.2200 2.9697 0.0128 1.0606 1.0607 1.0986 0.5574 0.6213 0.6214 0.5848 0.5846
        Q-s-low E-s-low   Q-p-low E-p-low   Q-d-low E-d-low   Q-f-low E-f-low
:EPL004:  0.0026 -0.8516    2.9952 -3.5575    0.0032 -1.1042    0.0000 10.0000
        Q-s-hi  E-s-hi    Q-p-hi  E-p-hi    Q-d-hi  E-d-hi    Q-f-hi  E-f-hi
:EPH004:  0.2314  0.3135    0.2236  0.4765    2.9672  0.5350    0.0124  0.5466
 
                      QXX         QXY         QYY         QZZ       UP TO R
:VZZ004:            -0.02976     0.01960    -0.01553     0.04529       2.300
 
:POS005: ATOM   -5 X,Y,Z = 0.00000 0.00000 0.00000  MULT= 1  ZZ= 65.000  Tb1
 
       LMMAX 16
       LM=   0 0  2 0  2 2 -2 2  4 0  4 2 -4 2  4 4 -4 4  6 0  6 2 -6 2  6 4 -6 4  6 6 -6 6
 
:CHA005: TOTAL VALENCE CHARGE INSIDE SPHERE   5 =   4.2642    (RMT=  2.5000 )
:PCS005: PARTIAL CHARGES SPHERE =  5 S,P,D,F,PX,PY,PZ,D-Z2,D-X2Y2,D-XY,D-XZ,D-YZ
:QTL005: 1.0423 2.8552 0.2536 0.1109 0.9534 0.9536 0.9480 0.0362 0.0620 0.0620 0.0467 0.0466
        Q-s-low E-s-low   Q-p-low E-p-low   Q-d-low E-d-low   Q-f-low E-f-low
:EPL005:  0.9824 -2.4054    2.7420 -0.7573    0.0000 10.0000    0.0000 10.0000
        Q-s-hi  E-s-hi    Q-p-hi  E-p-hi    Q-d-hi  E-d-hi    Q-f-hi  E-f-hi
:EPH005:  0.0590  0.3796    0.1131  0.4646    0.2534  0.5062    0.1108  0.5309
 
                      QXX         QXY         QYY         QZZ       UP TO R
:VZZ005:            -2.06984     0.26578    -1.75798     3.82783       2.500
 
:CHA  : TOTAL VALENCE CHARGE INSIDE UNIT CELL =      39.517528
 
:SUM  : SUM OF EIGENVALUES =         -47.604555671
 

        1.ATOM      Co1                   5 CORE STATES
:1S 001: 1S                -556.759278885 Ry
:2S 001: 2S                 -64.915703655 Ry
:2PP001: 2P*                -56.145876605 Ry
:2P 001: 2P                 -55.057746804 Ry
:3S 001: 3S                  -6.481070070 Ry

        2.ATOM      Co1                   5 CORE STATES
:1S 002: 1S                -556.759284154 Ry
:2S 002: 2S                 -64.915708928 Ry
:2PP002: 2P*                -56.145881876 Ry
:2P 002: 2P                 -55.057752075 Ry
:3S 002: 3S                  -6.481076382 Ry

        3.ATOM      Co1                   5 CORE STATES
:1S 003: 1S                -556.759278923 Ry
:2S 003: 2S                 -64.915703693 Ry
:2PP003: 2P*                -56.145876643 Ry
:2P 003: 2P                 -55.057746842 Ry
:3S 003: 3S                  -6.481070107 Ry

        4.ATOM      Co2                   5 CORE STATES
       CORE-FORCE in mRy/a.u. = |F|      Fx             Fy             Fz
:FCO004:   4.ATOM      0.014703510990     -0.014703509981     -0.000005446070      0.000000000000

:1S 004: 1S                -556.771689047 Ry
:2S 004: 2S                 -64.928210895 Ry
:2PP004: 2P*                -56.158362715 Ry
:2P 004: 2P                 -55.070235022 Ry
:3S 004: 3S                  -6.494269169 Ry

        5.ATOM      Tb1                  14 CORE STATES
:1S 005: 1S               -3806.808631355 Ry
:2S 005: 2S                -630.032852897 Ry
:2PP005: 2P*               -598.617017584 Ry
:2P 005: 2P                -543.745154422 Ry
:3S 005: 3S                -139.236532831 Ry
:3PP005: 3P*               -125.581525768 Ry
:3P 005: 3P                -114.266861657 Ry
:3DD005: 3D*                -90.755306420 Ry
:3D 005: 3D                 -88.287972324 Ry
:4S 005: 4S                 -27.124789415 Ry
:4PP005: 4P*                -21.776812164 Ry
:4P 005: 4P                 -19.245848752 Ry
:4DD005: 4D*                -10.441240300 Ry
:4D 005: 4D                  -9.982302509 Ry

        1.ATOM      Co1                   5 CORE STATES
:1S 001: 1S                -556.759484412 Ry
:2S 001: 2S                 -64.804032270 Ry
:2PP001: 2P*                -56.063336812 Ry
:2P 001: 2P                 -54.972609348 Ry
:3S 001: 3S                  -6.240222185 Ry

        2.ATOM      Co1                   5 CORE STATES
:1S 002: 1S                -556.759489681 Ry
:2S 002: 2S                 -64.804037542 Ry
:2PP002: 2P*                -56.063342083 Ry
:2P 002: 2P                 -54.972614619 Ry
:3S 002: 3S                  -6.240225749 Ry

        3.ATOM      Co1                   5 CORE STATES
:1S 003: 1S                -556.759484450 Ry
:2S 003: 2S                 -64.804032308 Ry
:2PP003: 2P*                -56.063336850 Ry
:2P 003: 2P                 -54.972609386 Ry
:3S 003: 3S                  -6.240222222 Ry

        4.ATOM      Co2                   5 CORE STATES
       CORE-FORCE in mRy/a.u. = |F|      Fx             Fy             Fz
:FCO004:   4.ATOM      0.013372301974     -0.013372300871     -0.000005429020      0.000000000000

:1S 004: 1S                -556.771892856 Ry
:2S 004: 2S                 -64.816524079 Ry
:2PP004: 2P*                -56.075810329 Ry
:2P 004: 2P                 -54.985084688 Ry
:3S 004: 3S                  -6.253318123 Ry

        5.ATOM      Tb1                  14 CORE STATES
:1S 005: 1S               -3806.808616444 Ry
:2S 005: 2S                -630.027319462 Ry
:2PP005: 2P*               -598.613784470 Ry
:2P 005: 2P                -543.740701935 Ry
:3S 005: 3S                -139.063680477 Ry
:3PP005: 3P*               -125.425696513 Ry
:3P 005: 3P                -114.087343855 Ry
:3DD005: 3D*                -90.626274019 Ry
:3D 005: 3D                 -88.152920673 Ry
:4S 005: 4S                 -26.731626289 Ry
:4PP005: 4P*                -21.384237594 Ry
:4P 005: 4P                 -18.858073600 Ry
:4DD005: 4D*                -10.055550044 Ry
:4D 005: 4D                  -9.598394838 Ry
:CINT001 Core Integral Atom   1 Up    5.99960901 Dn   5.999565 Total  11.99917441
:CINT002 Core Integral Atom   2 Up    5.99960879 Dn   5.999566 Total  11.99917455
:CINT003 Core Integral Atom   3 Up    5.99960901 Dn   5.999565 Total  11.99917441
:CINT004 Core Integral Atom   4 Up    5.99960861 Dn   5.999566 Total  11.99917431
:CINT005 Core Integral Atom   5 Up   22.99997624 Dn  22.999972 Total  45.99994860

       DENSITY AT NUCLEUS
        JATOM        VALENCE       SEMI-CORE          CORE           TOTAL
:RTO001:   1        8.625967        0.000000    17495.961944    17504.587912
:RTO002:   2        8.625795        0.000000    17495.962004    17504.587798
:RTO003:   3        8.625352        0.000000    17495.961944    17504.587297
:RTO004:   4        8.737241        0.000000    17495.942580    17504.679820
:RTO005:   5     1230.156032        0.000000  1219623.699687  1220853.855720

       HYPERFINE FIELDS FOR THOMSON RADIUS
:HFF001:           34.309           0.000        -362.596        -328.287 (KGAUSS)
:HFF002:           34.362           0.000        -362.703        -328.341 (KGAUSS)
:HFF003:           34.095           0.000        -362.596        -328.501 (KGAUSS)
:HFF004:          184.068           0.000        -363.493        -179.425 (KGAUSS)
:HFF005:         2435.720           0.000       -2547.920        -112.200 (KGAUSS)
:K-LIST:Reduced k-vector list    19745    2293
     
       CHARGES OF NEW CHARGE DENSITY
:NTO   : INTERSTITIAL      UP =     3.534531 DN =     3.848993 TOT =     7.383523
:NPC   : INTERSTITIAL      UP =    10.872118 DN =    10.161607 TOT =    21.033726
:NTO001: CHARGE SPHERE   1 UP =   13.979163 DN =   12.175485 TOT =   26.154648
:NTO002: CHARGE SPHERE   2 UP =   13.979317 DN =   12.175436 TOT =   26.154753
:NTO003: CHARGE SPHERE   3 UP =   13.979232 DN =   12.175064 TOT =   26.154296
:NTO004: CHARGE SPHERE   4 UP =   13.996951 DN =   12.438168 TOT =   26.435119
:NTO005: CHARGE SPHERE   5 UP =   34.014346 DN =   27.264017 TOT =   61.278363

:NEC01: NUCLEAR AND ELECTRONIC CHARGE    200.00000000   199.99582047 Plane Wave
     
       CHARGES OF OLD CHARGE DENSITY
:OTO   : INTERSTITIAL      UP =     4.000058 DN =     3.282715 TOT =     7.282773
:OPC   : INTERSTITIAL      UP =    14.090380 DN =     9.578846 TOT =    23.669226
:OTO001: CHARGE SPHERE   1 UP =   14.474701 DN =   11.521584 TOT =   25.996285
:OTO002: CHARGE SPHERE   2 UP =   14.474698 DN =   11.521582 TOT =   25.996280
:OTO003: CHARGE SPHERE   3 UP =   14.474701 DN =   11.521584 TOT =   25.996285
:OTO004: CHARGE SPHERE   4 UP =   14.477810 DN =   11.516740 TOT =   25.994549
:OTO005: CHARGE SPHERE   5 UP =   34.620218 DN =   28.119049 TOT =   62.739267

:NEC02: NUCLEAR AND ELECTRONIC CHARGE    200.00000000   199.99998808 Total

:VSOld: Total Rescaling   1.00000006
     
       CONVERGENCE TEST
:DTO001: DIFFERENCE SPHERE  1 UP =  0.6271041 DN =  0.5842028 TOT =  1.2113069
:DTO002: DIFFERENCE SPHERE  2 UP =  0.6269265 DN =  0.5841624 TOT =  1.2110889
:DTO003: DIFFERENCE SPHERE  3 UP =  0.6270623 DN =  0.5837280 TOT =  1.2107903
:DTO004: DIFFERENCE SPHERE  4 UP =  0.6170054 DN =  0.9070196 TOT =  1.5240250
:DTO005: DIFFERENCE SPHERE  5 UP =  0.3880836 DN =  1.4497309 TOT =  1.8378145

:DIS  :  CHARGE DISTANCE      (  1.4497309 for atom    5 spin 2)      2.8396835
 
******************************************************
* Multisecant Mixing Release 10.8.9                  *
* Standard Mode with step bound                      *
* Multisecant MSR1 Algorithm                         *
* Regularization       2.000E-04                     *
* Minimum Greed        1.000E-03                     *
* Max Number of Memory Steps    8                    *
******************************************************
 

:FULLRMS/Atom   1.3271710172
:PLANE:  PW /ATOM     1.12494 DISTAN   5.38E-01 %  4.78E+01
:CHARG:  CLM/ATOM   260.61572 DISTAN   7.46E-01 %  2.86E-01

Step History
        Dmix         Dmixt        Red     Pred      Step      Lambda    MagAbs    Beta
  1   3.5000E-01   3.5000E-01  1.00E+00  1.00E+00  1.00E-01  1.00E+00  1.14E-01  1.00E+00
:NOTE :  :INFO: Pratt in use
:TRUST:  Step  1.0E-01 Charge  3.3E-02 (e) CTO  2.2E-01 (e) PW  2.0E-01 (e)
:DIRP : |PRAT|= 4.839E-03 |PRATT|= 1.902E+00 ANGLE=   0.0 DEGREES
:DIRQ : |PRAT|= 6.708E-03 |PRATT|= 2.637E+00 ANGLE=   0.0 DEGREES
:DIRT : |PRAT|= 8.271E-03 |PRATT|= 3.251E+00 ANGLE=   0.0 DEGREES
  
:INFO: Pseudo Compensation for mesh of   64
  
:INFO: Pseudo Compensation Rescaling     9.99133E-01
  
:INFO: Pseudo Compensation Rescaling     1.00301E+00
  
:MIX  :  PRATT  REGULARIZATION:  2.00E-04 GREED: 0.00254                 
     
       CHARGES OF MIXED CHARGE DENSITY
:CTO   : INTERSTITIAL      UP =     3.998879 DN =     3.284161 TOT =     7.283040
:CPC   : INTERSTITIAL      UP =    12.414772 DN =     9.408231 TOT =    21.823004
:CTO001: CHARGE SPHERE   1 UP =   14.473441 DN =   11.523248 TOT =   25.996689
:CTO002: CHARGE SPHERE   2 UP =   14.473439 DN =   11.523246 TOT =   25.996685
:CTO003: CHARGE SPHERE   3 UP =   14.473441 DN =   11.523247 TOT =   25.996689
:CTO004: CHARGE SPHERE   4 UP =   14.476587 DN =   11.519085 TOT =   25.995672
:CTO005: CHARGE SPHERE   5 UP =   34.618678 DN =   28.116875 TOT =   62.735554

       SPIN MAGNETIC MOMENTS OF MIXED CHARGE DENSITY
:MMINT:  MAGNETIC MOMENT IN INTERSTITIAL  =    0.71472
:MMI001: MAGNETIC MOMENT IN SPHERE   1    =    2.95019
:MMI002: MAGNETIC MOMENT IN SPHERE   2    =    2.95019
:MMI003: MAGNETIC MOMENT IN SPHERE   3    =    2.95019
:MMI004: MAGNETIC MOMENT IN SPHERE   4    =    2.95750
:MMI005: MAGNETIC MOMENT IN SPHERE   5    =    6.50180
:MMTOT:  SPIN MAGNETIC MOMENT IN CELL     =   21.98210

:NEC03: NUCLEAR AND ELECTRONIC CHARGE    200.00000000   200.00000000

PW CHANGE     H    K    L      Current       Change    Residue
:PUP001:      0    0    0  2.87737786E-02 -2.939E-03 -6.444E-03
:PUP002:     -1    0    0  9.58688288E-04  3.412E-03  4.446E-03
:PUP003:     -1    1    0  9.58686720E-04  3.412E-03  4.446E-03
:PUP004:      0   -1    0  9.58636247E-04  3.412E-03  4.446E-03
:PUP005:      0    0   -1  5.16476775E-03  2.151E-03  3.351E-03
:PUP006:     -1    0   -1  6.25722268E-03  8.253E-04  1.484E-03
:PUP007:     -1    0    1  6.25722286E-03  8.253E-04  1.484E-03
:PUP008:     -1    1   -1  6.25721244E-03  8.253E-04  1.483E-03
:PUP009:     -1    1    1  6.25721256E-03  8.253E-04  1.483E-03
:PUP010:      0   -1   -1  6.25726165E-03  8.253E-04  1.483E-03
:PUP011:      0   -1    1  6.25726159E-03  8.253E-04  1.483E-03
:PUP012:     -2    1    0  6.28764760E-03 -2.415E-04 -9.354E-05
  
:PDN001:      0    0    0  2.22502658E-02 -2.966E-04  2.028E-03
:PDN002:     -1    0    0  1.82916937E-03  3.310E-03  3.923E-03
:PDN003:     -1    1    0  1.82908098E-03  3.310E-03  3.922E-03
:PDN004:      0   -1    0  1.82925052E-03  3.310E-03  3.922E-03
:PDN005:      0    0   -1  4.84300669E-03  2.756E-03  4.365E-03
:PDN006:     -1    0   -1  5.45757278E-03  1.840E-03  3.120E-03
:PDN007:     -1    0    1  5.45757245E-03  1.840E-03  3.120E-03
:PDN008:     -1    1   -1  5.45763643E-03  1.840E-03  3.120E-03
:PDN009:     -1    1    1  5.45763598E-03  1.840E-03  3.120E-03
:PDN010:      0   -1   -1  5.45750137E-03  1.840E-03  3.119E-03
:PDN011:      0   -1    1  5.45750163E-03  1.840E-03  3.119E-03
:PDN012:     -2    1    0  5.32298669E-03  1.184E-03  2.125E-03

:ENE  : ********** TOTAL ENERGY IN Ry =       -37373.14972114

:FOR001:   1.ATOM          0.000          0.000          0.000          0.000 partial forces
:FOR002:   2.ATOM          0.000          0.000          0.000          0.000 partial forces
:FOR003:   3.ATOM          0.000          0.000          0.000          0.000 partial forces
:FOR004:   4.ATOM          0.026          0.026          0.000          0.000 partial forces
:FOR005:   5.ATOM          0.000          0.000          0.000          0.000 partial forces
       TOTAL FORCE WITH RESPECT TO THE GLOBAL COORDINATE SYSTEM:
:FGL001:   1.ATOM                 0.000000000     0.000000000     0.000000000 partial forces
:FGL002:   2.ATOM                 0.000000000     0.000000000     0.000000000 partial forces
:FGL003:   3.ATOM                 0.000000000     0.000000000     0.000000000 partial forces
:FGL004:   4.ATOM                 0.030339223     0.015179756     0.000000000 partial forces
:FGL005:   5.ATOM                 0.000000000     0.000000000     0.000000000 partial forces
 Euler-Maclaurian Coulomb
 Consistent 3/8+Simpson combinations at start/end
 New Mode for Coulomb Integral
 Extension of core to zero
 LDM version in phi
 Fifth-order quadrature in outwin
 Lebedev-Laikov Grid in lapw0


            ---------
:ITE002:  2. ITERATION
            ---------

:NATO :    5 INDEPENDENT AND    6 TOTAL ATOMS IN UNITCELL
       SUBSTANCE: blebleble                                s-o calc. M||  0.10

       LATTICE                      = H   
:LAT  : LATTICE CONSTANTS=  9.34658  9.34658  7.54001
:VOL  : UNIT CELL VOLUME =     570.43781
:POT  : POTENTIAL OPTION EX_PBE EC_PBE VX_PBE VC_PBE
       MODE OF CALCULATION IS       = RELA
       SPINPOLARIZED CALCULATION
:IFFT  : FFT-parameters:   96   96   80 Factor: 2.00


   CONVERGENCE PARAMETER FOR PSEUDOCHARGE: NCON=  9
   MAXIMAL VALUE OF RMT(JATOM)*ABSK(NKK) : RK  =39.99508


:VKCOUL :  VK-COUL convergence: 0.241E-09
 Lebedev grid of          350
 :rho_min:   2.0000000000000000E-008   1.0000000000000001E-009
:VCOUL001 ATOMNUMBER=  1 Co1     VCOUL-ZERO =  0.54509E+00
:EFG001:                        EFG         =    -0.12861   *10**21  V / m**2
                               V20  TOT/SRF=     0.01673     0.03227
                               V22  TOT/SRF=    -0.05945    -0.12355
                               V22M TOT/SRF=     0.10303     0.21404
                               V21  TOT/SRF=     0.00000     0.00000
                               V21M TOT/SRF=     0.00000     0.00000

             -0.06911    0.10303    0.00000       -0.12861    0.00000    0.00000
              0.10303    0.04980    0.00000        0.00000    0.10930    0.00000
              0.00000    0.00000    0.01931        0.00000    0.00000    0.01931

         MAIN DIRECTIONS OF THE EFG   1.0000  0.5775  0.0000
                                     -0.5775  1.0000  0.0000
                                     -0.0000 -0.0000  1.0000
:ANG001:  ANGLE WITH OLD X-AXIS =        30.0

:ETA001:                         ASYMM. ETA =     0.69965


:VCOUL002 ATOMNUMBER=  2 Co1     VCOUL-ZERO =  0.54508E+00
:EFG002:                        EFG         =    -0.12857   *10**21  V / m**2
                               V20  TOT/SRF=     0.01675     0.03226
                               V22  TOT/SRF=     0.11890     0.24715
                               V22M TOT/SRF=     0.00010     0.00000
                               V21  TOT/SRF=     0.00000     0.00000
                               V21M TOT/SRF=     0.00000     0.00000

              0.10923    0.00010    0.00000        0.10923    0.00000    0.00000
              0.00010   -0.12857    0.00000        0.00000   -0.12857    0.00000
              0.00000    0.00000    0.01934        0.00000    0.00000    0.01934

         MAIN DIRECTIONS OF THE EFG   1.0000 -0.0004  0.0000
                                      0.0004  1.0000  0.0000
                                      0.0000  0.0000  1.0000
:ANG002:  ANGLE WITH OLD X-AXIS =         0.0

:ETA002:                         ASYMM. ETA =     0.69916


:VCOUL003 ATOMNUMBER=  3 Co1     VCOUL-ZERO =  0.54509E+00
:EFG003:                        EFG         =    -0.12857   *10**21  V / m**2
                               V20  TOT/SRF=     0.01675     0.03227
                               V22  TOT/SRF=    -0.05952    -0.12355
                               V22M TOT/SRF=    -0.10293    -0.21404
                               V21  TOT/SRF=     0.00000     0.00000
                               V21M TOT/SRF=     0.00000     0.00000

             -0.06918   -0.10293    0.00000       -0.12857    0.00000    0.00000
             -0.10293    0.04985    0.00000        0.00000    0.10923    0.00000
              0.00000    0.00000    0.01934        0.00000    0.00000    0.01934

         MAIN DIRECTIONS OF THE EFG   1.0000 -0.5769  0.0000
                                      0.5769  1.0000  0.0000
                                     -0.0000 -0.0000  1.0000
:ANG003:  ANGLE WITH OLD X-AXIS =        30.0

:ETA003:                         ASYMM. ETA =     0.69922


:VCOUL004 ATOMNUMBER=  4 Co2     VCOUL-ZERO =  0.53008E+00
:EFG004:                        EFG         =     0.06201   *10**21  V / m**2
                               V20  TOT/SRF=     0.05370     0.14365
                               V22  TOT/SRF=    -0.00002    -0.00000
                               V22M TOT/SRF=     0.00004    -0.00000
                               V21  TOT/SRF=     0.00000     0.00000
                               V21M TOT/SRF=     0.00000     0.00000

             -0.03103    0.00004    0.00000       -0.03105    0.00000    0.00000
              0.00004   -0.03098    0.00000        0.00000   -0.03096    0.00000
              0.00000    0.00000    0.06201        0.00000    0.00000    0.06201

         MAIN DIRECTIONS OF THE EFG   1.0000  0.6031  0.0000
                                     -0.6031  1.0000  0.0000
                                     -0.0000 -0.0000  1.0000
:ANG004:  ANGLE WITH OLD X-AXIS =        31.1

:ETA004:                         ASYMM. ETA =     0.00145


:VCOUL005 ATOMNUMBER=  5 Tb1     VCOUL-ZERO =  0.46502E+00
:EFG005:                        EFG         =    -0.03612   *10**21  V / m**2
                               V20  TOT/SRF=    -0.03128    -0.10069
                               V22  TOT/SRF=     0.00026    -0.00000
                               V22M TOT/SRF=    -0.00026    -0.00000
                               V21  TOT/SRF=     0.00000     0.00000
                               V21M TOT/SRF=     0.00000     0.00000

              0.01832   -0.00026    0.00000        0.01843    0.00000    0.00000
             -0.00026    0.01780    0.00000        0.00000    0.01769    0.00000
              0.00000    0.00000   -0.03612        0.00000    0.00000   -0.03612

         MAIN DIRECTIONS OF THE EFG   1.0000  0.4198  0.0000
                                     -0.4198  1.0000  0.0000
                                      0.0000  0.0000  1.0000
:ANG005:  ANGLE WITH OLD X-AXIS =        22.8

:ETA005:                         ASYMM. ETA =     0.02047


     HELLMANN-FEYNMAN-FORCE IN mRy/a.u. = |F|  Fx       Fy             Fz
:FHF001:   1.ATOM      0.000000000000      0.000000000000      0.000000000000      0.000000000000

     HELLMANN-FEYNMAN-FORCE IN mRy/a.u. = |F|  Fx       Fy             Fz
:FHF002:   2.ATOM      0.000000000000      0.000000000000      0.000000000000      0.000000000000

     HELLMANN-FEYNMAN-FORCE IN mRy/a.u. = |F|  Fx       Fy             Fz
:FHF003:   3.ATOM      0.000000000000      0.000000000000      0.000000000000      0.000000000000

     HELLMANN-FEYNMAN-FORCE IN mRy/a.u. = |F|  Fx       Fy             Fz
:FHF004:   4.ATOM      0.037828376364      0.037826436658     -0.000383077096      0.000000000000

     HELLMANN-FEYNMAN-FORCE IN mRy/a.u. = |F|  Fx       Fy             Fz
:FHF005:   5.ATOM      0.000000000000      0.000000000000      0.000000000000      0.000000000000

:FIT001: LUSE= 13 SIGMA OF V-XC FIT FOR ATOM  1  0.7044868E-03
:FIT001: LUSE= 13 SIGMA OF V-XC FIT FOR ATOM  1  0.9953757E-03
:FIT002: LUSE= 13 SIGMA OF V-XC FIT FOR ATOM  2  0.5559243E-03
:FIT002: LUSE= 13 SIGMA OF V-XC FIT FOR ATOM  2  0.1020390E-02
:FIT003: LUSE= 13 SIGMA OF V-XC FIT FOR ATOM  3  0.7044839E-03
:FIT003: LUSE= 13 SIGMA OF V-XC FIT FOR ATOM  3  0.9953794E-03
:FIT004: LUSE= 13 SIGMA OF V-XC FIT FOR ATOM  4  0.7003372E-03
:FIT004: LUSE= 13 SIGMA OF V-XC FIT FOR ATOM  4  0.8048002E-03
:FIT005: LUSE= 13 SIGMA OF V-XC FIT FOR ATOM  5  0.3588185E-03
:FIT005: LUSE= 13 SIGMA OF V-XC FIT FOR ATOM  5  0.5524791E-03
:DEN  : DENSITY INTEGRAL  =        -14938.54802972   (Ry)
       ELS_POTENTIAL_AT Z=0 and Z=0.5:  -0.83333  -0.40674
       ELS_POTENTIAL_AT Y=0 and Y=0.5:  -0.47718  -0.33471
:VZERO:v0,v0c,v0x  -1.73949  -0.83333  -0.90616 v5,v5c,v5x  -1.23705  -0.40674  -0.83031
:VZERY:v0,v0c,v0x  -1.32372  -0.47718  -0.84655 v5,v5c,v5x  -1.21812  -0.33471  -0.88341
:VZERX:v0,v0c,v0x  -1.32372  -0.47718  -0.84655 v5,v5c,v5x  -1.21809  -0.33469  -0.88341
:LMAX-WF:   10   Non-Spherical LMAX:   6

          ATOMIC SPHERE DEPENDENT PARAMETERS FOR ATOM  Co1       
:e__0001: OVERALL ENERGY PARAMETER IS    0.4036
          OVERALL BASIS SET ON ATOM IS LAPW
:E1_0001: E( 1)=    0.4036
             APW+lo
:E1_0001: E( 1)=   -3.7902   E(BOTTOM)=   -3.825   E(TOP)=   -3.755  1  2   177
             LOCAL ORBITAL
:E2_0001: E( 2)=    0.3779   E(BOTTOM)=    0.140   E(TOP)=    0.616  0  1   122
             APW+lo
:E0_0001: E( 0)=    0.4036
             APW+lo

          ATOMIC SPHERE DEPENDENT PARAMETERS FOR ATOM  Co1       
:e__0002: OVERALL ENERGY PARAMETER IS    0.4036
          OVERALL BASIS SET ON ATOM IS LAPW
:E1_0002: E( 1)=    0.4036
             APW+lo
:E1_0002: E( 1)=   -3.7902   E(BOTTOM)=   -3.825   E(TOP)=   -3.755  1  2   177
             LOCAL ORBITAL
:E2_0002: E( 2)=    0.3779   E(BOTTOM)=    0.140   E(TOP)=    0.616  0  1   128
             APW+lo
:E0_0002: E( 0)=    0.4036
             APW+lo

          ATOMIC SPHERE DEPENDENT PARAMETERS FOR ATOM  Co1       
:e__0003: OVERALL ENERGY PARAMETER IS    0.4036
          OVERALL BASIS SET ON ATOM IS LAPW
:E1_0003: E( 1)=    0.4036
             APW+lo
:E1_0003: E( 1)=   -3.7902   E(BOTTOM)=   -3.825   E(TOP)=   -3.755  1  2   176
             LOCAL ORBITAL
:E2_0003: E( 2)=    0.3779   E(BOTTOM)=    0.140   E(TOP)=    0.616  0  1   126
             APW+lo
:E0_0003: E( 0)=    0.4036
             APW+lo

          ATOMIC SPHERE DEPENDENT PARAMETERS FOR ATOM  Co2       
:e__0004: OVERALL ENERGY PARAMETER IS    0.4036
          OVERALL BASIS SET ON ATOM IS LAPW
:E1_0004: E( 1)=    0.4036
             APW+lo
:E1_0004: E( 1)=   -3.8026   E(BOTTOM)=   -3.838   E(TOP)=   -3.767  1  2   171
             LOCAL ORBITAL
:E2_0004: E( 2)=    0.3651   E(BOTTOM)=    0.127   E(TOP)=    0.603  0  1   127
             APW+lo
:E0_0004: E( 0)=    0.4036
             APW+lo

          ATOMIC SPHERE DEPENDENT PARAMETERS FOR ATOM  Tb1       
:e__0005: OVERALL ENERGY PARAMETER IS    0.4036
          OVERALL BASIS SET ON ATOM IS LAPW
:E0_0005: E( 0)=    0.4036
             APW+lo
:E0_0005: E( 0)=   -2.6567   E(BOTTOM)=   -2.852   E(TOP)=   -2.461  4  5   187
             LOCAL ORBITAL
:E1_0005: E( 1)=    0.8036
             APW+lo
:E1_0005: E( 1)=   -0.9398   E(BOTTOM)=   -1.373   E(TOP)=   -0.507  3  4   172
             LOCAL ORBITAL
:E3_0005: E( 3)=    0.4450   E(BOTTOM)=    0.382   E(TOP)=    0.508  0  1   107
             APW+lo
:E2_0005: E( 2)=    0.4037   E(BOTTOM)=    0.404   E(TOP)= -520.000  2 -1    76
             APW+lo

       K=  0.031250  0.031250  0.029412            1
:RKM  : MATRIX SIZE   653LOs:  80  RKM= 9.00  WEIGHT= 2.00  PGR:    
       EIGENVALUES ARE:
:EIG00001:      -3.8047119   -3.7989348   -3.7972516   -3.7945733   -3.7945389
:EIG00006:      -3.7942327   -3.7942136   -3.7843595   -3.7842849   -3.7830603
:EIG00011:      -3.7830230   -3.7790908   -3.7761567   -3.7760977   -3.7728680
:EIG00016:      -2.6216988   -0.9211233   -0.9210392   -0.8952910   -0.0065957
:EIG00021:       0.2035321    0.2831667    0.2862864    0.2866409    0.2896622
:EIG00026:       0.2908530    0.3077237    0.3082699    0.3201596    0.3236338
:EIG00031:       0.3550094    0.3556524    0.3913619    0.3920485    0.4162518
:EIG00036:       0.4281927    0.4284719    0.4455448    0.4531801    0.4550108
:EIG00041:       0.4550692    0.4563879    0.4568676    0.4572092    0.4574069
:EIG00046:       0.4605390    0.4610876    0.4657013    0.4658498    0.5176136

:EIG00051:       0.5204418    0.5292027    0.6190620    0.6773283    0.6795033
:EIG00056:       0.7043811    0.7718019    0.7976746    0.8135679    0.9894478
:EIG00061:       0.9923124    1.1828502    1.2539036    1.2580947    1.3383656
:EIG00066:       1.3676632    1.4100455    1.4172114    1.4559149    1.4830707
:EIG00071:       1.4973333    1.6307617    1.6452353    1.7391976    1.7409191
:EIG00076:       1.8933834    1.9047045    2.1036918    2.1104106    2.2543811
:EIG00081:       2.3054506    2.3202035    2.3252166    2.3669053    2.3802873
:EIG00086:       2.4030273    2.4432218    2.4670450    2.5120371    2.5127502
:EIG00091:       2.6746706    2.7773257    2.7859580    2.8472715    2.9114574
:EIG00096:       2.9492762    2.9643267    2.9695685    2.9849246    3.0082971

:EIG00101:       3.0298731    3.0497512    3.1404980    3.1538082    3.2219633
:EIG00106:       3.2495631    3.2686678    3.2790707    3.3618603    3.3646070
:EIG00111:       3.4302373    3.4905941    3.5082591    3.5695755    3.5755956
:EIG00116:       3.6094805    3.6623473    3.7201816    3.7396902    3.7847230
:EIG00121:       3.7889236    3.8404423    3.9981132    4.0347436    4.0628590
:EIG00126:       4.0643586    4.1148252    4.1624798    4.2098901    4.2578402
:EIG00131:       4.3306956    4.3366843    4.3912483    4.4156273    4.4238530
:EIG00136:       4.4449301    4.4531114    4.4654716    4.5825576    4.5878527
:EIG00141:       4.6011765    4.6118646    4.6566354    4.6814500    4.7283546
:EIG00146:       4.7361962    4.7817013    4.7999886    4.8143180    4.8240026

:EIG00151:       4.8375722    4.8910211    4.9012521    4.9513382    4.9640680
:EIG00156:       5.0058934    5.0380972    5.0492170    5.1005722    5.1626925
:EIG00161:       5.1707113    5.1952254    5.2273836    5.2971714    5.3411307
:EIG00166:       5.3508896    5.3961397    5.4607556    5.4666615    5.4716400
       ********************************************************

:KPT   :      NUMBER OF K-POINTS:    2176
:LMAX-WF:   10   Non-Spherical LMAX:   6

          ATOMIC SPHERE DEPENDENT PARAMETERS FOR ATOM  Co1       
:e__0001: OVERALL ENERGY PARAMETER IS    0.4036
          OVERALL BASIS SET ON ATOM IS LAPW
:E1_0001: E( 1)=    0.4036
             APW+lo
:E1_0001: E( 1)=   -3.5558   E(BOTTOM)=   -3.594   E(TOP)=   -3.518  1  2   200
             LOCAL ORBITAL
:E2_0001: E( 2)=    0.5865   E(BOTTOM)=    0.322   E(TOP)=    0.851  0  1   126
             APW+lo
:E0_0001: E( 0)=    0.4036
             APW+lo

          ATOMIC SPHERE DEPENDENT PARAMETERS FOR ATOM  Co1       
:e__0002: OVERALL ENERGY PARAMETER IS    0.4036
          OVERALL BASIS SET ON ATOM IS LAPW
:E1_0002: E( 1)=    0.4036
             APW+lo
:E1_0002: E( 1)=   -3.5558   E(BOTTOM)=   -3.594   E(TOP)=   -3.518  1  2   204
             LOCAL ORBITAL
:E2_0002: E( 2)=    0.5864   E(BOTTOM)=    0.322   E(TOP)=    0.851  0  1   130
             APW+lo
:E0_0002: E( 0)=    0.4036
             APW+lo

          ATOMIC SPHERE DEPENDENT PARAMETERS FOR ATOM  Co1       
:e__0003: OVERALL ENERGY PARAMETER IS    0.4036
          OVERALL BASIS SET ON ATOM IS LAPW
:E1_0003: E( 1)=    0.4036
             APW+lo
:E1_0003: E( 1)=   -3.5558   E(BOTTOM)=   -3.594   E(TOP)=   -3.518  1  2   199
             LOCAL ORBITAL
:E2_0003: E( 2)=    0.5864   E(BOTTOM)=    0.322   E(TOP)=    0.851  0  1   126
             APW+lo
:E0_0003: E( 0)=    0.4036
             APW+lo

          ATOMIC SPHERE DEPENDENT PARAMETERS FOR ATOM  Co2       
:e__0004: OVERALL ENERGY PARAMETER IS    0.4036
          OVERALL BASIS SET ON ATOM IS LAPW
:E1_0004: E( 1)=    0.4036
             APW+lo
:E1_0004: E( 1)=   -3.5681   E(BOTTOM)=   -3.606   E(TOP)=   -3.530  1  2   198
             LOCAL ORBITAL
:E2_0004: E( 2)=    0.5739   E(BOTTOM)=    0.309   E(TOP)=    0.839  0  1   131
             APW+lo
:E0_0004: E( 0)=    0.4036
             APW+lo

          ATOMIC SPHERE DEPENDENT PARAMETERS FOR ATOM  Tb1       
:e__0005: OVERALL ENERGY PARAMETER IS    0.4036
          OVERALL BASIS SET ON ATOM IS LAPW
:E0_0005: E( 0)=    0.4036
             APW+lo
:E0_0005: E( 0)=   -2.4476   E(BOTTOM)=   -2.660   E(TOP)=   -2.235  4  5   207
             LOCAL ORBITAL
:E1_0005: E( 1)=    0.8036
             APW+lo
:E1_0005: E( 1)=   -0.7712   E(BOTTOM)=   -1.230   E(TOP)=   -0.312  3  4   191
             LOCAL ORBITAL
:E3_0005: E( 3)=    0.7862   E(BOTTOM)=    0.704   E(TOP)=    0.868  0  1   132
             APW+lo
:E2_0005: E( 2)=    0.5058   E(BOTTOM)=    0.506   E(TOP)= -520.000  2 -1    81
             APW+lo

       K=  0.031250  0.031250  0.029412            1
:RKM  : MATRIX SIZE   653LOs:  80  RKM= 9.00  WEIGHT= 2.00  PGR:    
       EIGENVALUES ARE:
:EIG00001:      -3.5707807   -3.5648322   -3.5625897   -3.5595038   -3.5594697
:EIG00006:      -3.5592117   -3.5591882   -3.5491707   -3.5490918   -3.5479030
:EIG00011:      -3.5478572   -3.5432268   -3.5405382   -3.5404701   -3.5371109
:EIG00016:      -2.4107795   -0.7609295   -0.7608106   -0.7315895    0.0582903
:EIG00021:       0.3530493    0.4083304    0.4167498    0.4497513    0.4612914
:EIG00026:       0.4614615    0.4660945    0.4696898    0.4927997    0.4931865
:EIG00031:       0.5428512    0.5435001    0.5783355    0.5796397    0.6243012
:EIG00036:       0.6349106    0.6352945    0.6578062    0.6578617    0.6699924
:EIG00041:       0.6794197    0.6796412    0.7054431    0.7318733    0.7459996
:EIG00046:       0.7535947    0.7555721    0.7829503    0.7861765    0.7958266

:EIG00051:       0.8027399    0.8028557    0.8203030    0.8272948    0.8362316
:EIG00056:       0.8640061    0.8805926    0.8959538    0.9300093    1.0986114
:EIG00061:       1.1013391    1.3036621    1.3642196    1.3695351    1.4391462
:EIG00066:       1.4616258    1.5041629    1.5061677    1.5329254    1.5860727
:EIG00071:       1.5920302    1.7123923    1.7317503    1.8005141    1.8085652
:EIG00076:       1.9693049    1.9802556    2.1942766    2.1999547    2.3241862
:EIG00081:       2.3507239    2.3649528    2.3800144    2.4280056    2.4457296
:EIG00086:       2.4676827    2.5096023    2.5349658    2.5807288    2.5813412
:EIG00091:       2.7185821    2.8327800    2.8434479    2.8876269    2.9795066
:EIG00096:       3.0149318    3.0473778    3.0572330    3.0653256    3.0690242

:EIG00101:       3.1018932    3.1100669    3.1840382    3.1979946    3.2874300
:EIG00106:       3.3110964    3.3141305    3.3323472    3.4284020    3.4312354
:EIG00111:       3.4918405    3.5488200    3.5757830    3.6294671    3.6331609
:EIG00116:       3.6656553    3.7227828    3.7789197    3.8046610    3.8510070
:EIG00121:       3.8518463    3.9132320    4.0565217    4.1054910    4.1312689
:EIG00126:       4.1331770    4.1668497    4.2197401    4.2762577    4.3386179
:EIG00131:       4.3913211    4.3978668    4.4495866    4.4759795    4.4813712
:EIG00136:       4.5092522    4.5272751    4.5313639    4.6480076    4.6510677
:EIG00141:       4.6585199    4.6704440    4.7157828    4.7419116    4.7758082
:EIG00146:       4.7833380    4.8300311    4.8525547    4.8607829    4.8754153

:EIG00151:       4.8865474    4.9447184    4.9585289    5.0111302    5.0238358
:EIG00156:       5.0693097    5.0892286    5.1014624    5.1697770    5.2231544
:EIG00161:       5.2329166    5.2617278    5.2887604    5.3597579    5.4150269
:EIG00166:       5.4268026    5.4561082    5.5172072    5.5374226    5.5478395
       ********************************************************

:KPT   :      NUMBER OF K-POINTS:    2176
  Potential not averaged when calculating dV/dr
  90.0 -30.0 angle (M,z), angle (M,x) deg

        SPIN-ORBIT EIGENVALUES:
     K=  0.031250  0.031250  0.029412            1
      MATRIX SIZE=  340   WEIGHT= 2.00
     EIGENVALUES ARE:
          -3.8564382   -3.8544970   -3.8457593   -3.8403381   -3.8372952
          -3.8135994   -3.8124562   -3.8095735   -3.7986976   -3.7954691
          -3.7531887   -3.7517967   -3.7423309   -3.7361904   -3.7337896
          -3.5889982   -3.5866593   -3.5781621   -3.5728734   -3.5687969
          -3.5462741   -3.5448991   -3.5438106   -3.5309940   -3.5272747
          -3.5185043   -3.5172774   -3.5076280   -3.5009742   -3.4985565
          -2.6216988   -2.4107795   -1.0803393   -1.0335428   -0.8090817
          -0.7424462   -0.7017299   -0.6514329   -0.0065857    0.0583029

           0.2034567    0.2828923    0.2861067    0.2864710    0.2895930
           0.2909335    0.3075878    0.3081165    0.3200444    0.3233547
           0.3529179    0.3546931    0.3555402    0.3912393    0.3920650
           0.4081588    0.4150909    0.4165256    0.4278590    0.4283242
           0.4318490    0.4394531    0.4399331    0.4489238    0.4521264
           0.4544035    0.4546160    0.4556848    0.4606200    0.4609203
           0.4616008    0.4650184    0.4659994    0.4664496    0.4700319
           0.4749112    0.4835805    0.4932517    0.4935748    0.5179189

           0.5204539    0.5297656    0.5427501    0.5434520    0.5783540
           0.5796436    0.6189364    0.6232915    0.6351034    0.6360279
           0.6578940    0.6581278    0.6692811    0.6765016    0.6796206
           0.6802412    0.6809361    0.7043633    0.7053410    0.7322546
           0.7456743    0.7531026    0.7555449    0.7720290    0.7750560
           0.7806686    0.7947994    0.7985324    0.8054994    0.8136017
           0.8146922    0.8238583    0.8326150    0.8376666    0.8649076
           0.8822834    0.8971500    0.9300151    0.9892263    0.9920123

           1.0984620    1.1012150    1.1829049    1.2535909    1.2577283
           1.3036879    1.3381963    1.3638621    1.3684040    1.3701627
           1.4100575    1.4168926    1.4392324    1.4544722    1.4617807
           1.4828958    1.4955900    1.5043313    1.5071515    1.5340946
           1.5859998    1.5920430    1.6309351    1.6454074    1.7123395
           1.7310878    1.7406767    1.7415496    1.8005801    1.8079417
           1.8946539
       ********************************************************
:GAP (global)   :    0.0    Ry =     0.0   eV (metal)
:GAP (this spin):    0.0    Ry =     0.0   eV (metal)
         Bandranges (emin - emax) and occupancy:
:BAN00087:  87    0.539439    0.622983  1.00000000
:BAN00088:  88    0.540875    0.631889  1.00000000
:BAN00089:  89    0.563733    0.639758  1.00000000
:BAN00090:  90    0.575903    0.647307  1.00000000
:BAN00091:  91    0.578228    0.658140  0.99120113
:BAN00092:  92    0.585429    0.658330  0.97225227
:BAN00093:  93    0.614436    0.669423  0.93126176
:BAN00094:  94    0.619549    0.677181  0.79685516
:BAN00095:  95    0.625895    0.679621  0.27671448
:BAN00096:  96    0.644598    0.680267  0.03150886
:BAN00097:  97    0.652074    0.686093  0.00020618
:BAN00098:  98    0.664630    0.704363  0.00000000
:BAN00099:  99    0.669719    0.727157  0.00000000
:BAN00100: 100    0.678891    0.733801  0.00000000
:BAN00101: 101    0.685985    0.747412  0.00000000
:BAN00102: 102    0.695966    0.771278  0.00000000
        Energy to separate low and high energystates:   -0.05796


:NOE  : NUMBER OF ELECTRONS          =   94.000

:FER  : F E R M I - ENERGY(TETRAH.M.)=   0.6543643948
:GMA  : POTENTIAL AND CHARGE CUT-OFF  16.00 Ry**.5
 
:POS001: ATOM   -1 X,Y,Z = 0.50000 0.00000 0.50000  MULT= 1  ZZ= 27.000  Co1
 
       LMMAX 16
       LM=   0 0  2 0  2 2 -2 2  4 0  4 2 -4 2  4 4 -4 4  6 0  6 2 -6 2  6 4 -6 4  6 6 -6 6
 
:CHA001: TOTAL VALENCE CHARGE INSIDE SPHERE   1 =   7.9798    (RMT=  2.3000 )
:PCS001: PARTIAL CHARGES SPHERE =  1 S,P,D,F,PX,PY,PZ,D-Z2,D-X2Y2,D-XY,D-XZ,D-YZ
:QTL001: 0.2407 3.2115 4.5097 0.0131 1.0560 1.0807 1.0754 0.8956 0.8980 0.9068 0.9089 0.9006
        Q-s-low E-s-low   Q-p-low E-p-low   Q-d-low E-d-low   Q-f-low E-f-low
:EPL001:  0.0000 10.0000    2.9952 -3.7825    0.0000 10.0000    0.0000 10.0000
        Q-s-hi  E-s-hi    Q-p-hi  E-p-hi    Q-d-hi  E-d-hi    Q-f-hi  E-f-hi
:EPH001:  0.2401  0.2530    0.2161  0.3980    4.5090  0.3990    0.0130  0.3928
 
                      QXX         QXY         QYY         QZZ       UP TO R
:VZZ001:             1.67906    -2.50464    -1.21680    -0.46224       2.300
 
:POS002: ATOM   -2 X,Y,Z = 0.00000 0.50000 0.50000  MULT= 1  ZZ= 27.000  Co1
 
       LMMAX 16
       LM=   0 0  2 0  2 2 -2 2  4 0  4 2 -4 2  4 4 -4 4  6 0  6 2 -6 2  6 4 -6 4  6 6 -6 6
 
:CHA002: TOTAL VALENCE CHARGE INSIDE SPHERE   2 =   7.9799    (RMT=  2.3000 )
:PCS002: PARTIAL CHARGES SPHERE =  2 S,P,D,F,PX,PY,PZ,D-Z2,D-X2Y2,D-XY,D-XZ,D-YZ
:QTL002: 0.2407 3.2116 4.5099 0.0133 1.0929 1.0436 1.0750 0.8953 0.9109 0.8941 0.8964 0.9127
        Q-s-low E-s-low   Q-p-low E-p-low   Q-d-low E-d-low   Q-f-low E-f-low
:EPL002:  0.0000 10.0000    2.9952 -3.7825    0.0000 10.0000    0.0000 10.0000
        Q-s-hi  E-s-hi    Q-p-hi  E-p-hi    Q-d-hi  E-d-hi    Q-f-hi  E-f-hi
:EPH002:  0.2398  0.2530    0.2162  0.3980    4.5091  0.3990    0.0132  0.3932
 
                      QXX         QXY         QYY         QZZ       UP TO R
:VZZ002:            -2.64990    -0.00104     3.11855    -0.46862       2.300
 
:POS003: ATOM   -3 X,Y,Z = 0.50000 0.50000 0.50000  MULT= 1  ZZ= 27.000  Co1
 
       LMMAX 16
       LM=   0 0  2 0  2 2 -2 2  4 0  4 2 -4 2  4 4 -4 4  6 0  6 2 -6 2  6 4 -6 4  6 6 -6 6
 
:CHA003: TOTAL VALENCE CHARGE INSIDE SPHERE   3 =   7.9799    (RMT=  2.3000 )
:PCS003: PARTIAL CHARGES SPHERE =  3 S,P,D,F,PX,PY,PZ,D-Z2,D-X2Y2,D-XY,D-XZ,D-YZ
:QTL003: 0.2407 3.2114 4.5099 0.0131 1.0560 1.0805 1.0749 0.8952 0.8981 0.9067 0.9086 0.9006
        Q-s-low E-s-low   Q-p-low E-p-low   Q-d-low E-d-low   Q-f-low E-f-low
:EPL003:  0.0000 10.0000    2.9952 -3.7825    0.0000 10.0000    0.0000 10.0000
        Q-s-hi  E-s-hi    Q-p-hi  E-p-hi    Q-d-hi  E-d-hi    Q-f-hi  E-f-hi
:EPH003:  0.2399  0.2529    0.2162  0.3980    4.5090  0.3990    0.0130  0.3928
 
                      QXX         QXY         QYY         QZZ       UP TO R
:VZZ003:             1.67142     2.50189    -1.22202    -0.44941       2.300
 
:POS004: ATOM   -4 X,Y,Z = 0.33333 0.66667 0.00000  MULT= 2  ZZ= 27.000  Co2
 
       LMMAX 28
       LM=   0 0  1 1 -1 1  2 0  2 2 -2 2  3 1 -3 1  3 3 -3 3  4 0  4 2 -4 2  4 4 -4 4  5 1 -5 1
         5 3 -5 3  5 5 -5 5  6 0  6 2 -6 2  6 4 -6 4  6 6 -6 6
 
:CHA004: TOTAL VALENCE CHARGE INSIDE SPHERE   4 =   7.9959    (RMT=  2.3000 )
:PCS004: PARTIAL CHARGES SPHERE =  4 S,P,D,F,PX,PY,PZ,D-Z2,D-X2Y2,D-XY,D-XZ,D-YZ
:QTL004: 0.2509 3.2122 4.5161 0.0128 1.0610 1.0610 1.0907 0.9107 0.9093 0.9093 0.8932 0.8930
        Q-s-low E-s-low   Q-p-low E-p-low   Q-d-low E-d-low   Q-f-low E-f-low
:EPL004:  0.0024 -1.0057    2.9958 -3.7935    0.0024 -1.2367    0.0000 10.0000
        Q-s-hi  E-s-hi    Q-p-hi  E-p-hi    Q-d-hi  E-d-hi    Q-f-hi  E-f-hi
:EPH004:  0.2490  0.2726    0.2156  0.4082    4.5143  0.3866    0.0126  0.4024
 
                      QXX         QXY         QYY         QZZ       UP TO R
:VZZ004:             1.10026    -0.00568     1.10269    -2.20295       2.300
 
:POS005: ATOM   -5 X,Y,Z = 0.00000 0.00000 0.00000  MULT= 1  ZZ= 65.000  Tb1
 
       LMMAX 16
       LM=   0 0  2 0  2 2 -2 2  4 0  4 2 -4 2  4 4 -4 4  6 0  6 2 -6 2  6 4 -6 4  6 6 -6 6
 
:CHA005: TOTAL VALENCE CHARGE INSIDE SPHERE   5 =  11.0198    (RMT=  2.5000 )
:PCS005: PARTIAL CHARGES SPHERE =  5 S,P,D,F,PX,PY,PZ,D-Z2,D-X2Y2,D-XY,D-XZ,D-YZ
:QTL005: 1.0473 2.8711 0.2296 6.8693 0.9591 0.9592 0.9521 0.0311 0.0631 0.0632 0.0359 0.0363
        Q-s-low E-s-low   Q-p-low E-p-low   Q-d-low E-d-low   Q-f-low E-f-low
:EPL005:  0.9856 -2.6215    2.7799 -0.9221    0.0000 10.0000    0.0000 10.0000
        Q-s-hi  E-s-hi    Q-p-hi  E-p-hi    Q-d-hi  E-d-hi    Q-f-hi  E-f-hi
:EPH005:  0.0623  0.3411    0.0915  0.3761    0.2296  0.4322    6.8692  0.4553
 
                      QXX         QXY         QYY         QZZ       UP TO R
:VZZ005:            -2.47213    -0.37602    -2.98712     5.45922       2.500
 
:CHA  : TOTAL VALENCE CHARGE INSIDE UNIT CELL =      54.491524
 
:SUM  : SUM OF EIGENVALUES =         -48.080732030
 
:GAP (global)   :    0.0    Ry =     0.0   eV (metal)
:GAP (this spin):    0.0    Ry =     0.0   eV (metal)
         Bandranges (emin - emax) and occupancy:
:BAN00087:  87    0.539439    0.622983  1.00000000
:BAN00088:  88    0.540875    0.631889  1.00000000
:BAN00089:  89    0.563733    0.639758  1.00000000
:BAN00090:  90    0.575903    0.647307  1.00000000
:BAN00091:  91    0.578228    0.658140  0.99120113
:BAN00092:  92    0.585429    0.658330  0.97225227
:BAN00093:  93    0.614436    0.669423  0.93126176
:BAN00094:  94    0.619549    0.677181  0.79685516
:BAN00095:  95    0.625895    0.679621  0.27671448
:BAN00096:  96    0.644598    0.680267  0.03150886
:BAN00097:  97    0.652074    0.686093  0.00020618
:BAN00098:  98    0.664630    0.704363  0.00000000
:BAN00099:  99    0.669719    0.727157  0.00000000
:BAN00100: 100    0.678891    0.733801  0.00000000
:BAN00101: 101    0.685985    0.747412  0.00000000
:BAN00102: 102    0.695966    0.771278  0.00000000
        Energy to separate low and high energystates:   -0.05796


:NOE  : NUMBER OF ELECTRONS          =   94.000

:FER  : F E R M I - ENERGY(TETRAH.M.)=   0.6543643948
:GMA  : POTENTIAL AND CHARGE CUT-OFF  16.00 Ry**.5
 
:POS001: ATOM   -1 X,Y,Z = 0.50000 0.00000 0.50000  MULT= 1  ZZ= 27.000  Co1
 
       LMMAX 16
       LM=   0 0  2 0  2 2 -2 2  4 0  4 2 -4 2  4 4 -4 4  6 0  6 2 -6 2  6 4 -6 4  6 6 -6 6
 
:CHA001: TOTAL VALENCE CHARGE INSIDE SPHERE   1 =   6.1787    (RMT=  2.3000 )
:PCS001: PARTIAL CHARGES SPHERE =  1 S,P,D,F,PX,PY,PZ,D-Z2,D-X2Y2,D-XY,D-XZ,D-YZ
:QTL001: 0.2404 3.2249 2.6966 0.0130 1.0611 1.0844 1.0794 0.5813 0.5507 0.5135 0.5077 0.5430
        Q-s-low E-s-low   Q-p-low E-p-low   Q-d-low E-d-low   Q-f-low E-f-low
:EPL001:  0.0000 10.0000    2.9952 -3.5472    0.0000 10.0000    0.0000 10.0000
        Q-s-hi  E-s-hi    Q-p-hi  E-p-hi    Q-d-hi  E-d-hi    Q-f-hi  E-f-hi
:EPH001:  0.2394  0.3153    0.2300  0.4738    2.6958  0.5342    0.0128  0.5327
 
                      QXX         QXY         QYY         QZZ       UP TO R
:VZZ001:             2.00056    -1.79665    -0.06457    -1.93599       2.300
 
:POS002: ATOM   -2 X,Y,Z = 0.00000 0.50000 0.50000  MULT= 1  ZZ= 27.000  Co1
 
       LMMAX 16
       LM=   0 0  2 0  2 2 -2 2  4 0  4 2 -4 2  4 4 -4 4  6 0  6 2 -6 2  6 4 -6 4  6 6 -6 6
 
:CHA002: TOTAL VALENCE CHARGE INSIDE SPHERE   2 =   6.1786    (RMT=  2.3000 )
:PCS002: PARTIAL CHARGES SPHERE =  2 S,P,D,F,PX,PY,PZ,D-Z2,D-X2Y2,D-XY,D-XZ,D-YZ
:QTL002: 0.2402 3.2252 2.6967 0.0130 1.0962 1.0496 1.0795 0.5815 0.4960 0.5689 0.5607 0.4897
        Q-s-low E-s-low   Q-p-low E-p-low   Q-d-low E-d-low   Q-f-low E-f-low
:EPL002:  0.0000 10.0000    2.9952 -3.5473    0.0000 10.0000    0.0000 10.0000
        Q-s-hi  E-s-hi    Q-p-hi  E-p-hi    Q-d-hi  E-d-hi    Q-f-hi  E-f-hi
:EPH002:  0.2394  0.3153    0.2303  0.4738    2.6954  0.5342    0.0128  0.5328
 
                      QXX         QXY         QYY         QZZ       UP TO R
:VZZ002:            -1.14880     0.03508     3.06394    -1.91513       2.300
 
:POS003: ATOM   -3 X,Y,Z = 0.50000 0.50000 0.50000  MULT= 1  ZZ= 27.000  Co1
 
       LMMAX 16
       LM=   0 0  2 0  2 2 -2 2  4 0  4 2 -4 2  4 4 -4 4  6 0  6 2 -6 2  6 4 -6 4  6 6 -6 6
 
:CHA003: TOTAL VALENCE CHARGE INSIDE SPHERE   3 =   6.1784    (RMT=  2.3000 )
:PCS003: PARTIAL CHARGES SPHERE =  3 S,P,D,F,PX,PY,PZ,D-Z2,D-X2Y2,D-XY,D-XZ,D-YZ
:QTL003: 0.2403 3.2253 2.6962 0.0130 1.0611 1.0846 1.0793 0.5815 0.5500 0.5141 0.5079 0.5427
        Q-s-low E-s-low   Q-p-low E-p-low   Q-d-low E-d-low   Q-f-low E-f-low
:EPL003:  0.0000 10.0000    2.9952 -3.5472    0.0000 10.0000    0.0000 10.0000
        Q-s-hi  E-s-hi    Q-p-hi  E-p-hi    Q-d-hi  E-d-hi    Q-f-hi  E-f-hi
:EPH003:  0.2394  0.3153    0.2303  0.4738    2.6954  0.5342    0.0128  0.5327
 
                      QXX         QXY         QYY         QZZ       UP TO R
:VZZ003:             1.97915     1.83326    -0.04494    -1.93424       2.300
 
:POS004: ATOM   -4 X,Y,Z = 0.33333 0.66667 0.00000  MULT= 2  ZZ= 27.000  Co2
 
       LMMAX 28
       LM=   0 0  1 1 -1 1  2 0  2 2 -2 2  3 1 -3 1  3 3 -3 3  4 0  4 2 -4 2  4 4 -4 4  5 1 -5 1
         5 3 -5 3  5 5 -5 5  6 0  6 2 -6 2  6 4 -6 4  6 6 -6 6
 
:CHA004: TOTAL VALENCE CHARGE INSIDE SPHERE   4 =   6.4252    (RMT=  2.3000 )
:PCS004: PARTIAL CHARGES SPHERE =  4 S,P,D,F,PX,PY,PZ,D-Z2,D-X2Y2,D-XY,D-XZ,D-YZ
:QTL004: 0.2334 3.2200 2.9563 0.0128 1.0606 1.0607 1.0984 0.5555 0.6174 0.6173 0.5828 0.5829
        Q-s-low E-s-low   Q-p-low E-p-low   Q-d-low E-d-low   Q-f-low E-f-low
:EPL004:  0.0026 -0.8567    2.9952 -3.5580    0.0032 -1.1103    0.0000 10.0000
        Q-s-hi  E-s-hi    Q-p-hi  E-p-hi    Q-d-hi  E-d-hi    Q-f-hi  E-f-hi
:EPH004:  0.2311  0.3124    0.2233  0.4755    2.9538  0.5339    0.0125  0.5456
 
                      QXX         QXY         QYY         QZZ       UP TO R
:VZZ004:             0.03471     0.01896     0.04840    -0.08312       2.300
 
:POS005: ATOM   -5 X,Y,Z = 0.00000 0.00000 0.00000  MULT= 1  ZZ= 65.000  Tb1
 
       LMMAX 16
       LM=   0 0  2 0  2 2 -2 2  4 0  4 2 -4 2  4 4 -4 4  6 0  6 2 -6 2  6 4 -6 4  6 6 -6 6
 
:CHA005: TOTAL VALENCE CHARGE INSIDE SPHERE   5 =   4.2705    (RMT=  2.5000 )
:PCS005: PARTIAL CHARGES SPHERE =  5 S,P,D,F,PX,PY,PZ,D-Z2,D-X2Y2,D-XY,D-XZ,D-YZ
:QTL005: 1.0423 2.8562 0.2559 0.1143 0.9534 0.9536 0.9493 0.0366 0.0625 0.0625 0.0475 0.0474
        Q-s-low E-s-low   Q-p-low E-p-low   Q-d-low E-d-low   Q-f-low E-f-low
:EPL005:  0.9824 -2.4105    2.7429 -0.7618    0.0000 10.0000    0.0000 10.0000
        Q-s-hi  E-s-hi    Q-p-hi  E-p-hi    Q-d-hi  E-d-hi    Q-f-hi  E-f-hi
:EPH005:  0.0594  0.3782    0.1131  0.4636    0.2559  0.5051    0.1142  0.5301
 
                      QXX         QXY         QYY         QZZ       UP TO R
:VZZ005:            -2.09249     0.26180    -1.78306     3.87557       2.500
 
:CHA  : TOTAL VALENCE CHARGE INSIDE UNIT CELL =      39.508473
 
:SUM  : SUM OF EIGENVALUES =         -47.664510098
 

        1.ATOM      Co1                   5 CORE STATES
:1S 001: 1S                -556.760651965 Ry
:2S 001: 2S                 -64.916989258 Ry
:2PP001: 2P*                -56.147180448 Ry
:2P 001: 2P                 -55.059048904 Ry
:3S 001: 3S                  -6.482182060 Ry

        2.ATOM      Co1                   5 CORE STATES
:1S 002: 1S                -556.760656421 Ry
:2S 002: 2S                 -64.916993758 Ry
:2PP002: 2P*                -56.147184938 Ry
:2P 002: 2P                 -55.059053395 Ry
[...]
        Energy to separate low and high energystates:   -0.01312


:NOE  : NUMBER OF ELECTRONS          =   94.000

:FER  : F E R M I - ENERGY(TETRAH.M.)=   0.6132812412
:GMA  : POTENTIAL AND CHARGE CUT-OFF  16.00 Ry**.5
 
:POS001: ATOM   -1 X,Y,Z = 0.50000 0.00000 0.50000  MULT= 1  ZZ= 27.000  Co1
 
       LMMAX 16
       LM=   0 0  2 0  2 2 -2 2  4 0  4 2 -4 2  4 4 -4 4  6 0  6 2 -6 2  6 4 -6 4  6 6 -6 6
 
:CHA001: TOTAL VALENCE CHARGE INSIDE SPHERE   1 =   6.2170    (RMT=  2.3000 )
:PCS001: PARTIAL CHARGES SPHERE =  1 S,P,D,F,PX,PY,PZ,D-Z2,D-X2Y2,D-XY,D-XZ,D-YZ
:QTL001: 0.2316 3.2104 2.7599 0.0118 1.0600 1.0772 1.0731 0.6029 0.5646 0.5340 0.5050 0.5537
        Q-s-low E-s-low   Q-p-low E-p-low   Q-d-low E-d-low   Q-f-low E-f-low
:EPL001:  0.0000 10.0000    2.9952 -3.6018    0.0000 10.0000    0.0000 10.0000
        Q-s-hi  E-s-hi    Q-p-hi  E-p-hi    Q-d-hi  E-d-hi    Q-f-hi  E-f-hi
:EPH001:  0.2308  0.2911    0.2157  0.4454    2.7591  0.4954    0.0115  0.5014
 
                      QXX         QXY         QYY         QZZ       UP TO R
:VZZ001:             1.38335    -1.08311     0.15229    -1.53563       2.300
 
:POS002: ATOM   -2 X,Y,Z = 0.00000 0.50000 0.50000  MULT= 1  ZZ= 27.000  Co1
 
       LMMAX 16
       LM=   0 0  2 0  2 2 -2 2  4 0  4 2 -4 2  4 4 -4 4  6 0  6 2 -6 2  6 4 -6 4  6 6 -6 6
 
:CHA002: TOTAL VALENCE CHARGE INSIDE SPHERE   2 =   6.2166    (RMT=  2.3000 )
:PCS002: PARTIAL CHARGES SPHERE =  2 S,P,D,F,PX,PY,PZ,D-Z2,D-X2Y2,D-XY,D-XZ,D-YZ
:QTL002: 0.2314 3.2101 2.7595 0.0117 1.0861 1.0516 1.0728 0.6031 0.5201 0.5767 0.5797 0.4805
        Q-s-low E-s-low   Q-p-low E-p-low   Q-d-low E-d-low   Q-f-low E-f-low
:EPL002:  0.0000 10.0000    2.9952 -3.6017    0.0000 10.0000    0.0000 10.0000
        Q-s-hi  E-s-hi    Q-p-hi  E-p-hi    Q-d-hi  E-d-hi    Q-f-hi  E-f-hi
:EPH002:  0.2312  0.2912    0.2152  0.4453    2.7586  0.4955    0.0114  0.5016
 
                      QXX         QXY         QYY         QZZ       UP TO R
:VZZ002:            -0.42090     0.00462     2.04382    -1.62294       2.300
 
:POS003: ATOM   -3 X,Y,Z = 0.50000 0.50000 0.50000  MULT= 1  ZZ= 27.000  Co1
 
       LMMAX 16
       LM=   0 0  2 0  2 2 -2 2  4 0  4 2 -4 2  4 4 -4 4  6 0  6 2 -6 2  6 4 -6 4  6 6 -6 6
 
:CHA003: TOTAL VALENCE CHARGE INSIDE SPHERE   3 =   6.2168    (RMT=  2.3000 )
:PCS003: PARTIAL CHARGES SPHERE =  3 S,P,D,F,PX,PY,PZ,D-Z2,D-X2Y2,D-XY,D-XZ,D-YZ
:QTL003: 0.2312 3.2105 2.7601 0.0117 1.0600 1.0774 1.0730 0.6030 0.5619 0.5355 0.5061 0.5544
        Q-s-low E-s-low   Q-p-low E-p-low   Q-d-low E-d-low   Q-f-low E-f-low
:EPL003:  0.0000 10.0000    2.9952 -3.6017    0.0000 10.0000    0.0000 10.0000
        Q-s-hi  E-s-hi    Q-p-hi  E-p-hi    Q-d-hi  E-d-hi    Q-f-hi  E-f-hi
:EPH003:  0.2307  0.2913    0.2157  0.4453    2.7588  0.4955    0.0115  0.5016
 
                      QXX         QXY         QYY         QZZ       UP TO R
:VZZ003:             1.40688     1.06690     0.20123    -1.60813       2.300
 
:POS004: ATOM   -4 X,Y,Z = 0.33333 0.66667 0.00000  MULT= 2  ZZ= 27.000  Co2
 
       LMMAX 28
       LM=   0 0  1 1 -1 1  2 0  2 2 -2 2  3 1 -3 1  3 3 -3 3  4 0  4 2 -4 2  4 4 -4 4  5 1 -5 1
         5 3 -5 3  5 5 -5 5  6 0  6 2 -6 2  6 4 -6 4  6 6 -6 6
 
:CHA004: TOTAL VALENCE CHARGE INSIDE SPHERE   4 =   6.2371    (RMT=  2.3000 )
:PCS004: PARTIAL CHARGES SPHERE =  4 S,P,D,F,PX,PY,PZ,D-Z2,D-X2Y2,D-XY,D-XZ,D-YZ
:QTL004: 0.2259 3.2055 2.7913 0.0124 1.0591 1.0595 1.0864 0.5400 0.5798 0.5743 0.5483 0.5486
        Q-s-low E-s-low   Q-p-low E-p-low   Q-d-low E-d-low   Q-f-low E-f-low
:EPL004:  0.0024 -1.0117    2.9952 -3.6005    0.0024 -1.2495    0.0000 10.0000
        Q-s-hi  E-s-hi    Q-p-hi  E-p-hi    Q-d-hi  E-d-hi    Q-f-hi  E-f-hi
:EPH004:  0.2238  0.2929    0.2093  0.4469    2.7895  0.4966    0.0107  0.5118
 
                      QXX         QXY         QYY         QZZ       UP TO R
:VZZ004:             0.18729     0.04236     0.23476    -0.42204       2.300
 
:POS005: ATOM   -5 X,Y,Z = 0.00000 0.00000 0.00000  MULT= 1  ZZ= 65.000  Tb1
 
       LMMAX 16
       LM=   0 0  2 0  2 2 -2 2  4 0  4 2 -4 2  4 4 -4 4  6 0  6 2 -6 2  6 4 -6 4  6 6 -6 6
 
:CHA005: TOTAL VALENCE CHARGE INSIDE SPHERE   5 =   5.4174    (RMT=  2.5000 )
:PCS005: PARTIAL CHARGES SPHERE =  5 S,P,D,F,PX,PY,PZ,D-Z2,D-X2Y2,D-XY,D-XZ,D-YZ
:QTL005: 1.0495 2.8728 0.3441 1.1492 0.9592 0.9598 0.9540 0.0549 0.0797 0.0793 0.0655 0.0650
        Q-s-low E-s-low   Q-p-low E-p-low   Q-d-low E-d-low   Q-f-low E-f-low
:EPL005:  0.9824 -2.5686    2.7642 -0.9115    0.0000 10.0000    0.0000 10.0000
        Q-s-hi  E-s-hi    Q-p-hi  E-p-hi    Q-d-hi  E-d-hi    Q-f-hi  E-f-hi
:EPH005:  0.0661  0.3318    0.1080  0.4316    0.3440  0.4665    1.1492  0.5788
 
                      QXX         QXY         QYY         QZZ       UP TO R
:VZZ005:            -3.39604    -2.19459    -5.94926     9.34529       2.500
 
:CHA  : TOTAL VALENCE CHARGE INSIDE UNIT CELL =      40.447912
 
:SUM  : SUM OF EIGENVALUES =         -49.182516092
 

        1.ATOM      Co1                   5 CORE STATES
:1S 001: 1S                -556.817088655 Ry
:2S 001: 2S                 -64.942641124 Ry
:2PP001: 2P*                -56.179947799 Ry
:2P 001: 2P                 -55.091140349 Ry
:3S 001: 3S                  -6.440920440 Ry

        2.ATOM      Co1                   5 CORE STATES
:1S 002: 1S                -556.817013282 Ry
:2S 002: 2S                 -64.942543865 Ry
:2PP002: 2P*                -56.179852350 Ry
:2P 002: 2P                 -55.091044753 Ry
:3S 002: 3S                  -6.440856543 Ry

        3.ATOM      Co1                   5 CORE STATES
:1S 003: 1S                -556.816987512 Ry
:2S 003: 2S                 -64.942516648 Ry
:2PP003: 2P*                -56.179827535 Ry
:2P 003: 2P                 -55.091019738 Ry
:3S 003: 3S                  -6.440805351 Ry

        4.ATOM      Co2                   5 CORE STATES
       CORE-FORCE in mRy/a.u. = |F|      Fx             Fy             Fz
:FCO004:   4.ATOM      8.506805834782      2.783870209624      8.038396119044      0.000000000000

:1S 004: 1S                -556.815056304 Ry
:2S 004: 2S                 -64.937836602 Ry
:2PP004: 2P*                -56.175565226 Ry
:2P 004: 2P                 -55.086719654 Ry
:3S 004: 3S                  -6.436953258 Ry

        5.ATOM      Tb1                  14 CORE STATES
:1S 005: 1S               -3807.004988628 Ry
:2S 005: 2S                -630.216236721 Ry
:2PP005: 2P*               -598.802071159 Ry
:2P 005: 2P                -543.929283137 Ry
:3S 005: 3S                -139.408944737 Ry
:3PP005: 3P*               -125.754651667 Ry
:3P 005: 3P                -114.438997998 Ry
:3DD005: 3D*                -90.929009475 Ry
:3D 005: 3D                 -88.461387485 Ry
:4S 005: 4S                 -27.284175615 Ry
:4PP005: 4P*                -21.936059881 Ry
:4P 005: 4P                 -19.404755383 Ry
:4DD005: 4D*                -10.599377807 Ry
:4D 005: 4D                 -10.140267387 Ry

        1.ATOM      Co1                   5 CORE STATES
:1S 001: 1S                -556.817586229 Ry
:2S 001: 2S                 -64.875337223 Ry
:2PP001: 2P*                -56.130338503 Ry
:2P 001: 2P                 -55.039958789 Ry
:3S 001: 3S                  -6.298977874 Ry

        2.ATOM      Co1                   5 CORE STATES
:1S 002: 1S                -556.817509255 Ry
:2S 002: 2S                 -64.875230972 Ry
:2PP002: 2P*                -56.130235611 Ry
:2P 002: 2P                 -55.039855587 Ry
:3S 002: 3S                  -6.298893163 Ry

        3.ATOM      Co1                   5 CORE STATES
:1S 003: 1S                -556.817481768 Ry
:2S 003: 2S                 -64.875228423 Ry
:2PP003: 2P*                -56.130228266 Ry
:2P 003: 2P                 -55.039848660 Ry
:3S 003: 3S                  -6.298893282 Ry

        4.ATOM      Co2                   5 CORE STATES
       CORE-FORCE in mRy/a.u. = |F|      Fx             Fy             Fz
:FCO004:   4.ATOM      8.343154853260      2.694583090273      7.896040455512      0.000000000000

:1S 004: 1S                -556.815516805 Ry
:2S 004: 2S                 -64.872242927 Ry
:2PP004: 2P*                -56.127222027 Ry
:2P 004: 2P                 -55.036844408 Ry
:3S 004: 3S                  -6.298571385 Ry

        5.ATOM      Tb1                  14 CORE STATES
:1S 005: 1S               -3807.005105400 Ry
:2S 005: 2S                -630.213092874 Ry
:2PP005: 2P*               -598.800555867 Ry
:2P 005: 2P                -543.926800323 Ry
:3S 005: 3S                -139.241211858 Ry
:3PP005: 3P*               -125.603667788 Ry
:3P 005: 3P                -114.264881026 Ry
:3DD005: 3D*                -90.804811382 Ry
:3D 005: 3D                 -88.331294841 Ry
:4S 005: 4S                 -26.903550895 Ry
:4PP005: 4P*                -21.555982972 Ry
:4P 005: 4P                 -19.029148035 Ry
:4DD005: 4D*                -10.226170149 Ry
:4D 005: 4D                  -9.768819684 Ry
:CINT001 Core Integral Atom   1 Up    5.99961218 Dn   5.999581 Total  11.99919366
:CINT002 Core Integral Atom   2 Up    5.99961216 Dn   5.999581 Total  11.99919363
:CINT003 Core Integral Atom   3 Up    5.99961216 Dn   5.999581 Total  11.99919364
:CINT004 Core Integral Atom   4 Up    5.99960951 Dn   5.999580 Total  11.99918917
:CINT005 Core Integral Atom   5 Up   22.99997711 Dn  22.999973 Total  45.99994992

       DENSITY AT NUCLEUS
        JATOM        VALENCE       SEMI-CORE          CORE           TOTAL
:RTO001:   1        8.141955        0.000000    17496.965736    17505.107691
:RTO002:   2        8.142655        0.000000    17496.965077    17505.107733
:RTO003:   3        8.143566        0.000000    17496.965321    17505.108887
:RTO004:   4        8.091780        0.000000    17496.913146    17505.004925
:RTO005:   5     1239.174090        0.000000  1219630.224583  1220869.398674

       HYPERFINE FIELDS FOR THOMSON RADIUS
:HFF001:           -9.380           0.000        -202.469        -211.849 (KGAUSS)
:HFF002:           -8.860           0.000        -202.500        -211.360 (KGAUSS)
:HFF003:           -8.331           0.000        -202.421        -210.752 (KGAUSS)
:HFF004:           54.672           0.000        -197.122        -142.450 (KGAUSS)
:HFF005:         2520.473           0.000       -2493.517          26.956 (KGAUSS)
:K-LIST:Reduced k-vector list    19745    2293
     
       CHARGES OF NEW CHARGE DENSITY
:NTO   : INTERSTITIAL      UP =     3.422391 DN =     3.906461 TOT =     7.328853
:NPC   : INTERSTITIAL      UP =    10.535285 DN =    10.026261 TOT =    20.561545
:NTO001: CHARGE SPHERE   1 UP =   13.807989 DN =   12.216562 TOT =   26.024551
:NTO002: CHARGE SPHERE   2 UP =   13.808251 DN =   12.216148 TOT =   26.024398
:NTO003: CHARGE SPHERE   3 UP =   13.808082 DN =   12.216345 TOT =   26.024427
:NTO004: CHARGE SPHERE   4 UP =   13.797145 DN =   12.236604 TOT =   26.033749
:NTO005: CHARGE SPHERE   5 UP =   34.109117 DN =   28.417066 TOT =   62.526183

:NEC01: NUCLEAR AND ELECTRONIC CHARGE    200.00000000   199.99590892 Plane Wave
     
       CHARGES OF OLD CHARGE DENSITY
:OTO   : INTERSTITIAL      UP =     3.424711 DN =     3.908289 TOT =     7.332999
:OPC   : INTERSTITIAL      UP =    10.541789 DN =    10.031234 TOT =    20.573023
:OTO001: CHARGE SPHERE   1 UP =   13.808294 DN =   12.216212 TOT =   26.024506
:OTO002: CHARGE SPHERE   2 UP =   13.808527 DN =   12.215891 TOT =   26.024418
:OTO003: CHARGE SPHERE   3 UP =   13.808361 DN =   12.216103 TOT =   26.024463
:OTO004: CHARGE SPHERE   4 UP =   13.797408 DN =   12.236278 TOT =   26.033686
:OTO005: CHARGE SPHERE   5 UP =   34.109065 DN =   28.417176 TOT =   62.526241

:NEC02: NUCLEAR AND ELECTRONIC CHARGE    200.00000000   200.00000000

:VSOld: Total Rescaling   1.00000000
     
       CONVERGENCE TEST
:DTO001: DIFFERENCE SPHERE  1 UP =  0.0002728 DN =  0.0004040 TOT =  0.0006768
:DTO002: DIFFERENCE SPHERE  2 UP =  0.0002432 DN =  0.0002709 TOT =  0.0005141
:DTO003: DIFFERENCE SPHERE  3 UP =  0.0002387 DN =  0.0002534 TOT =  0.0004921
:DTO004: DIFFERENCE SPHERE  4 UP =  0.0003091 DN =  0.0002872 TOT =  0.0005963
:DTO005: DIFFERENCE SPHERE  5 UP =  0.0003104 DN =  0.0006440 TOT =  0.0009544

:DIS  :  CHARGE DISTANCE      (  0.0006440 for atom    5 spin 2)      0.0012767
 
******************************************************
* Multisecant Mixing Release 10.8.9                  *
* Standard Mode with step bound                      *
* Multisecant MSR1 Algorithm                         *
* Regularization       2.000E-04                     *
* Minimum Greed        1.000E-03                     *
* Max Number of Memory Steps    8                    *
******************************************************
 
:INFOC: Max vcoul   0.00003 for atom   4 average:   0.00002

:FULLRMS/Atom   0.0006738533
:PLANE:  PW /ATOM     1.08549 DISTAN   9.30E-05 %  8.57E-03
:CHARG:  CLM/ATOM   260.58407 DISTAN   4.57E-04 %  1.76E-04
:INFOF Fractnow,Tolerror,TolReject,qtot     0.563     1.667     3.000     0.001 F F F

Step History
        Dmix         Dmixt        Red     Pred      Step      Lambda    MagAbs    Beta
  4   4.0221E-02   1.4502E-02  5.53E-01  5.96E-01  6.27E-02  3.77E+00  1.22E-03  1.00E+00
  5   4.3036E-02   1.5902E-02  7.81E-01  7.84E-01  1.65E-01  2.11E+00  1.77E-03  1.00E+00
  6   3.3908E-02   2.3803E-02  8.83E-01  9.16E-01  3.24E-01  1.88E+00  2.72E-03  1.00E+00
  7   2.4418E-02   2.4418E-02  8.37E-01  9.28E-01  3.66E-01  1.69E+00  2.72E-03  1.00E+00
  8   2.7038E-02   1.5392E-02  9.31E-01  9.36E-01  3.61E-01  1.48E+00  2.24E-03  1.00E+00
  9   2.1967E-02   2.1369E-02  8.06E-01  8.33E-01  3.84E-01  1.37E+00  2.22E-03  7.84E-01
 10   1.4897E-02   9.9101E-03  6.70E-01  6.78E-01  4.87E-01  1.20E+00  2.27E-03  1.00E+00
 11   2.9794E-02   2.9794E-02  9.40E-01  9.81E-01  7.44E-01  1.09E+00  2.32E-03  1.00E+00
 12   3.5943E-02   3.5943E-02  1.00E+00  6.39E-01  5.17E-01  1.08E+00  1.52E-03  1.00E+00
:NOTE :  Number of Memory Steps    8 Skipping    3
:INFOSL ,t1/t2,syy/sys,sqrt(syy/sss)     0.001     0.001     1.184     5.093     6.695     0.761     5.093    11.408     0.446

:PREDicted Charge, CTotal, PW Trust   7.13E-04   2.77E-03   1.44E-03
:PREDicted DMix, Beta, BLim           1.76E-01   1.04E+00   7.33E-01

Eigenvalues, unscaled except for SY+YY with Slambda=   1.01481 Ylambda=   1.00000
   #     SY Real       SY Imag         SS            YY        SY+YY Real     SY+YY Imag
   1   3.17864E+00   0.00000E+00   5.47041E+00   2.28876E+00   5.48279E+00   0.00000E+00
   2   3.75459E-01   0.00000E+00   1.71812E-01   1.15341E+00   1.51652E+00   0.00000E+00
   3   1.54535E-01   0.00000E+00   4.83434E-02   5.24659E-01   7.22793E-01   0.00000E+00
   4   3.98521E-02   0.00000E+00   7.13203E-03   2.00300E-01   2.47327E-01   0.00000E+00
   5   3.64640E-04   0.00000E+00   9.36700E-06   2.53873E-02   2.74356E-02   0.00000E+00
   6   7.38790E-05   0.00000E+00   3.02053E-06   2.44076E-03   2.51933E-03   0.00000E+00
   7   1.96493E-05   0.00000E+00   7.10859E-07   5.63194E-04   5.88624E-04   0.00000E+00
   8   1.10519E-06   0.00000E+00   1.07813E-07   2.96434E-05   3.07102E-05   0.00000E+00

:SING : Singular value  5.491E+00  Weight  1.000E+00  Projection  7.799E-06
:SING : Singular value  1.516E+00  Weight  1.000E+00  Projection -3.465E-04
:SING : Singular value  7.220E-01  Weight  1.000E+00  Projection -4.721E-04
:SING : Singular value  2.473E-01  Weight  1.000E+00  Projection  3.806E-04
:SING : Singular value  2.743E-02  Weight  9.984E-01  Projection  2.576E-03
:SING : Singular value  2.519E-03  Weight  8.403E-01  Projection  1.843E-03
:SING : Singular value  5.886E-04  Weight  2.231E-01  Projection -4.674E-04
:SING : Singular value  3.071E-05  Weight  7.813E-04  Projection  2.101E-06

:RANK :  ACTIVE   6.06/8  =  75.78 % ; YY RANK   6.04/8  =  75.48 %
:TRUST:  Step  7.9E-01 Charge  1.6E-03 (e) CTO  7.8E-03 (e) PW  2.6E-02 (e)
:DIRM :  MEMORY  8/8  RED  0.56 PRED  0.64 NEXT  0.94
:DIRP : |MSR1|= 3.647E-05 |PRATT|= 3.290E-04 ANGLE=  96.0 DEGREES
:DIRQ : |MSR1|= 3.356E-04 |PRATT|= 1.617E-03 ANGLE=  55.7 DEGREES
:DIRT : |MSR1|= 3.376E-04 |PRATT|= 1.651E-03 ANGLE=  56.9 DEGREES
:MIX  :  MSE1   REGULARIZATION:  1.10E-03 GREED: 0.07189  Newton 1.00  0.2045                
     
       CHARGES OF MIXED CHARGE DENSITY
:CTO   : INTERSTITIAL      UP =     3.424793 DN =     3.908230 TOT =     7.333023
:CPC   : INTERSTITIAL      UP =    10.541855 DN =    10.031215 TOT =    20.573070
:CTO001: CHARGE SPHERE   1 UP =   13.808265 DN =   12.216238 TOT =   26.024502
:CTO002: CHARGE SPHERE   2 UP =   13.808510 DN =   12.215900 TOT =   26.024410
:CTO003: CHARGE SPHERE   3 UP =   13.808343 DN =   12.216110 TOT =   26.024453
:CTO004: CHARGE SPHERE   4 UP =   13.797415 DN =   12.236266 TOT =   26.033681
:CTO005: CHARGE SPHERE   5 UP =   34.109086 DN =   28.417164 TOT =   62.526250

       SPIN MAGNETIC MOMENTS OF MIXED CHARGE DENSITY
:MMINT:  MAGNETIC MOMENT IN INTERSTITIAL  =   -0.48344
:MMI001: MAGNETIC MOMENT IN SPHERE   1    =    1.59203
:MMI002: MAGNETIC MOMENT IN SPHERE   2    =    1.59261
:MMI003: MAGNETIC MOMENT IN SPHERE   3    =    1.59223
:MMI004: MAGNETIC MOMENT IN SPHERE   4    =    1.56115
:MMI005: MAGNETIC MOMENT IN SPHERE   5    =    5.69192
:MMTOT:  SPIN MAGNETIC MOMENT IN CELL     =   13.10765

:NEC03: NUCLEAR AND ELECTRONIC CHARGE    200.00000000   200.00000000

PW CHANGE     H    K    L      Current       Change    Residue
:PUP001:      0    0    0  2.44840850E-02  2.594E-07 -1.810E-06
:PUP002:     -1    0    0  2.71808231E-03  8.763E-08  1.480E-06
:PUP003:     -1    1    0  2.72122795E-03  6.791E-08  1.391E-06
:PUP004:      0   -1    0  2.71977997E-03  5.293E-08  1.275E-06
:PUP005:      0    0   -1  6.35056681E-03  8.455E-08  1.152E-06
:PUP006:     -1    0   -1  6.87457217E-03 -3.031E-09  1.318E-07
:PUP007:     -1    0    1  6.87453264E-03 -2.069E-09  1.470E-07
:PUP008:     -1    1   -1  6.87435151E-03 -1.646E-10  1.512E-07
:PUP009:     -1    1    1  6.87415998E-03  8.025E-10  1.547E-07
:PUP010:      0   -1   -1  6.87529261E-03 -1.447E-08  6.720E-08
:PUP011:      0   -1    1  6.87525262E-03 -1.190E-08  8.179E-08
:PUP012:     -2    1    0  6.28049608E-03  6.021E-09  7.333E-08
  
:PDN001:      0    0    0  2.44363990E-02 -1.347E-07  1.713E-06
:PDN002:     -1    0    0  3.52108185E-03 -7.980E-09  1.708E-07
:PDN003:     -1    1    0  3.51905565E-03 -1.294E-08  1.568E-07
:PDN004:      0   -1    0  3.53136618E-03 -1.871E-08  5.524E-08
:PDN005:      0    0   -1  6.66424135E-03  1.607E-07  1.123E-06
:PDN006:     -1    0   -1  6.80757878E-03  4.471E-08  2.508E-07
:PDN007:     -1    0    1  6.80765054E-03  4.513E-08  2.482E-07
:PDN008:     -1    1   -1  6.80711511E-03  4.206E-08  2.418E-07
:PDN009:     -1    1    1  6.80721301E-03  4.243E-08  2.446E-07
:PDN010:      0   -1   -1  6.81228755E-03  4.629E-08  2.219E-07
:PDN011:      0   -1    1  6.81231316E-03  4.589E-08  2.164E-07
:PDN012:     -2    1    0  6.02909129E-03  1.022E-08  5.710E-08

:ENE  : ********** TOTAL ENERGY IN Ry =       -37373.11184526

:FOR001:   1.ATOM          0.000          0.000          0.000          0.000 partial forces
:FOR002:   2.ATOM          0.000          0.000          0.000          0.000 partial forces
:FOR003:   3.ATOM          0.000          0.000          0.000          0.000 partial forces
:FOR004:   4.ATOM          0.728         -0.050         -0.726          0.000 partial forces
:FOR005:   5.ATOM          0.000          0.000          0.000          0.000 partial forces
       TOTAL FORCE WITH RESPECT TO THE GLOBAL COORDINATE SYSTEM:
:FGL001:   1.ATOM                 0.000000000     0.000000000     0.000000000 partial forces
:FGL002:   2.ATOM                 0.000000000     0.000000000     0.000000000 partial forces
:FGL003:   3.ATOM                 0.000000000     0.000000000     0.000000000 partial forces
:FGL004:   4.ATOM                -0.058147747    -0.754937591     0.000000000 partial forces
:FGL005:   5.ATOM                 0.000000000     0.000000000     0.000000000 partial forces
