
:LABEL1: Calculations in /pscratch/sd/z/zhang714/cmae_jobs/cmae-main/test_TbCo5/30_n30_regular/case
:LABEL2: on nid005817 at Mon Feb 23 04:44:37 PM PST 2026
:LABEL3: using WIEN2k_24.1 (Release 1/8/2024) in /global/homes/z/zhang714/github/wien2k/src

:LABEL4: using the command: runsp_lapw -so -p -cc 0.001 -ec 0.00001 -i 100

 Euler-Maclaurian Coulomb
 Consistent 3/8+Simpson combinations at start/end
 New Mode for Coulomb Integral
 Extension of core to zero
 LDM version in phi
 Fifth-order quadrature in outwin
 Lebedev-Laikov Grid in lapw0


            ---------
:ITE001:  1. ITERATION
            ---------

:NATO :    5 INDEPENDENT AND    6 TOTAL ATOMS IN UNITCELL
       SUBSTANCE: blebleble                                s-o calc. M||  0.10

       LATTICE                      = H   
:LAT  : LATTICE CONSTANTS=  9.34658  9.34658  7.54001
:VOL  : UNIT CELL VOLUME =     570.43781
:POT  : POTENTIAL OPTION EX_PBE EC_PBE VX_PBE VC_PBE
       MODE OF CALCULATION IS       = RELA
       SPINPOLARIZED CALCULATION
:IFFT  : FFT-parameters:   96   96   80 Factor: 2.00


   CONVERGENCE PARAMETER FOR PSEUDOCHARGE: NCON=  9
   MAXIMAL VALUE OF RMT(JATOM)*ABSK(NKK) : RK  =39.99508


:VKCOUL :  VK-COUL convergence: 0.295E-09
 Lebedev grid of          350
 :rho_min:   2.0000000000000000E-008   1.0000000000000001E-009
:VCOUL001 ATOMNUMBER=  1 Co1     VCOUL-ZERO =  0.41266E+00
:EFG001:                        EFG         =    -0.14257   *10**21  V / m**2
                               V20  TOT/SRF=     0.02219     0.03253
                               V22  TOT/SRF=    -0.06485    -0.12286
                               V22M TOT/SRF=     0.11238     0.21286
                               V21  TOT/SRF=     0.00000     0.00000
                               V21M TOT/SRF=     0.00000     0.00000

             -0.07767    0.11238    0.00000       -0.14257    0.00000    0.00000
              0.11238    0.05204    0.00000        0.00000    0.11694    0.00000
              0.00000    0.00000    0.02563        0.00000    0.00000    0.02563

         MAIN DIRECTIONS OF THE EFG   1.0000  0.5775  0.0000
                                     -0.5775  1.0000  0.0000
                                     -0.0000 -0.0000  1.0000
:ANG001:  ANGLE WITH OLD X-AXIS =        30.0

:ETA001:                         ASYMM. ETA =     0.64049


:VCOUL002 ATOMNUMBER=  2 Co1     VCOUL-ZERO =  0.41266E+00
:EFG002:                        EFG         =    -0.14258   *10**21  V / m**2
                               V20  TOT/SRF=     0.02219     0.03253
                               V22  TOT/SRF=     0.12977     0.24580
                               V22M TOT/SRF=    -0.00000    -0.00000
                               V21  TOT/SRF=     0.00000     0.00000
                               V21M TOT/SRF=     0.00000     0.00000

              0.11696   -0.00000    0.00000        0.11696    0.00000    0.00000
             -0.00000   -0.14258    0.00000        0.00000   -0.14258    0.00000
              0.00000    0.00000    0.02562        0.00000    0.00000    0.02562

         MAIN DIRECTIONS OF THE EFG   1.0000  0.0000  0.0000
                                     -0.0000  1.0000  0.0000
                                      0.0000  0.0000  1.0000
:ANG002:  ANGLE WITH OLD X-AXIS =         0.0

:ETA002:                         ASYMM. ETA =     0.64061


:VCOUL003 ATOMNUMBER=  3 Co1     VCOUL-ZERO =  0.41267E+00
:EFG003:                        EFG         =    -0.14257   *10**21  V / m**2
                               V20  TOT/SRF=     0.02219     0.03253
                               V22  TOT/SRF=    -0.06485    -0.12286
                               V22M TOT/SRF=    -0.11239    -0.21287
                               V21  TOT/SRF=     0.00000     0.00000
                               V21M TOT/SRF=     0.00000     0.00000

             -0.07766   -0.11239    0.00000       -0.14257    0.00000    0.00000
             -0.11239    0.05204    0.00000        0.00000    0.11695    0.00000
              0.00000    0.00000    0.02562        0.00000    0.00000    0.02562

         MAIN DIRECTIONS OF THE EFG   1.0000 -0.5775  0.0000
                                      0.5775  1.0000  0.0000
                                     -0.0000 -0.0000  1.0000
:ANG003:  ANGLE WITH OLD X-AXIS =        30.0

:ETA003:                         ASYMM. ETA =     0.64056


:VCOUL004 ATOMNUMBER=  4 Co2     VCOUL-ZERO =  0.39743E+00
:EFG004:                        EFG         =     0.06577   *10**21  V / m**2
                               V20  TOT/SRF=     0.05696     0.14250
                               V22  TOT/SRF=    -0.00000    -0.00000
                               V22M TOT/SRF=     0.00000     0.00000
                               V21  TOT/SRF=     0.00000     0.00000
                               V21M TOT/SRF=     0.00000     0.00000

             -0.03289    0.00000    0.00000       -0.03289    0.00000    0.00000
              0.00000   -0.03288    0.00000        0.00000   -0.03288    0.00000
              0.00000    0.00000    0.06577        0.00000    0.00000    0.06577

         MAIN DIRECTIONS OF THE EFG   1.0000  0.2950  0.0000
                                     -0.2950  1.0000  0.0000
                                     -0.0000 -0.0000  1.0000
:ANG004:  ANGLE WITH OLD X-AXIS =        16.4

:ETA004:                         ASYMM. ETA =     0.00014


:VCOUL005 ATOMNUMBER=  5 Tb1     VCOUL-ZERO =  0.33175E+00
:EFG005:                        EFG         =    -0.05875   *10**21  V / m**2
                               V20  TOT/SRF=    -0.05088    -0.10031
                               V22  TOT/SRF=    -0.00001    -0.00000
                               V22M TOT/SRF=    -0.00000    -0.00000
                               V21  TOT/SRF=     0.00000     0.00000
                               V21M TOT/SRF=     0.00000     0.00000

              0.02936   -0.00000    0.00000        0.02936    0.00000    0.00000
             -0.00000    0.02938    0.00000        0.00000    0.02938    0.00000
              0.00000    0.00000   -0.05875        0.00000    0.00000   -0.05875

         MAIN DIRECTIONS OF THE EFG   1.0000 -0.1618  0.0000
                                      0.1618  1.0000  0.0000
                                     -0.0000 -0.0000  1.0000
:ANG005:  ANGLE WITH OLD X-AXIS =         9.2

:ETA005:                         ASYMM. ETA =     0.00031


     HELLMANN-FEYNMAN-FORCE IN mRy/a.u. = |F|  Fx       Fy             Fz
:FHF001:   1.ATOM      0.000000000000      0.000000000000      0.000000000000      0.000000000000

     HELLMANN-FEYNMAN-FORCE IN mRy/a.u. = |F|  Fx       Fy             Fz
:FHF002:   2.ATOM      0.000000000000      0.000000000000      0.000000000000      0.000000000000

     HELLMANN-FEYNMAN-FORCE IN mRy/a.u. = |F|  Fx       Fy             Fz
:FHF003:   3.ATOM      0.000000000000      0.000000000000      0.000000000000      0.000000000000

     HELLMANN-FEYNMAN-FORCE IN mRy/a.u. = |F|  Fx       Fy             Fz
:FHF004:   4.ATOM      0.117430360388      0.117371487300     -0.003717998100      0.000000000000

     HELLMANN-FEYNMAN-FORCE IN mRy/a.u. = |F|  Fx       Fy             Fz
:FHF005:   5.ATOM      0.000000000000      0.000000000000      0.000000000000      0.000000000000

:FIT001: LUSE= 13 SIGMA OF V-XC FIT FOR ATOM  1  0.7059986E-03
:FIT001: LUSE= 13 SIGMA OF V-XC FIT FOR ATOM  1  0.9942214E-03
:FIT002: LUSE= 13 SIGMA OF V-XC FIT FOR ATOM  2  0.5570787E-03
:FIT002: LUSE= 13 SIGMA OF V-XC FIT FOR ATOM  2  0.1019206E-02
:FIT003: LUSE= 13 SIGMA OF V-XC FIT FOR ATOM  3  0.7059987E-03
:FIT003: LUSE= 13 SIGMA OF V-XC FIT FOR ATOM  3  0.9942212E-03
:FIT004: LUSE= 13 SIGMA OF V-XC FIT FOR ATOM  4  0.7020062E-03
:FIT004: LUSE= 13 SIGMA OF V-XC FIT FOR ATOM  4  0.8029772E-03
:FIT005: LUSE= 13 SIGMA OF V-XC FIT FOR ATOM  5  0.3583912E-03
:FIT005: LUSE= 13 SIGMA OF V-XC FIT FOR ATOM  5  0.5521157E-03
:DEN  : DENSITY INTEGRAL  =        -14912.28471886   (Ry)
       ELS_POTENTIAL_AT Z=0 and Z=0.5:  -0.58359  -0.26769
       ELS_POTENTIAL_AT Y=0 and Y=0.5:  -0.29770  -0.25890
:VZERO:v0,v0c,v0x  -1.51712  -0.58359  -0.93353 v5,v5c,v5x  -1.15327  -0.26769  -0.88558
:VZERY:v0,v0c,v0x  -1.15453  -0.29770  -0.85683 v5,v5c,v5x  -1.18298  -0.25890  -0.92409
:VZERX:v0,v0c,v0x  -1.15453  -0.29770  -0.85683 v5,v5c,v5x  -1.18294  -0.25885  -0.92409
:LMAX-WF:   10   Non-Spherical LMAX:   6

          ATOMIC SPHERE DEPENDENT PARAMETERS FOR ATOM  Co1       
:e__0001: OVERALL ENERGY PARAMETER IS    0.3000
          OVERALL BASIS SET ON ATOM IS LAPW
:E1_0001: E( 1)=    0.3000
             APW+lo
:E1_0001: E( 1)=   -3.9228   E(BOTTOM)=   -3.958   E(TOP)=   -3.888  1  2   165
             LOCAL ORBITAL
:E2_0001: E( 2)=    0.2453   E(BOTTOM)=    0.007   E(TOP)=    0.483  0  1   121
             APW+lo
:E0_0001: E( 0)=    0.3000
             APW+lo

          ATOMIC SPHERE DEPENDENT PARAMETERS FOR ATOM  Co1       
:e__0002: OVERALL ENERGY PARAMETER IS    0.3000
          OVERALL BASIS SET ON ATOM IS LAPW
:E1_0002: E( 1)=    0.3000
             APW+lo
:E1_0002: E( 1)=   -3.9228   E(BOTTOM)=   -3.958   E(TOP)=   -3.888  1  2   160
             LOCAL ORBITAL
:E2_0002: E( 2)=    0.2453   E(BOTTOM)=    0.007   E(TOP)=    0.483  0  1   124
             APW+lo
:E0_0002: E( 0)=    0.3000
             APW+lo

          ATOMIC SPHERE DEPENDENT PARAMETERS FOR ATOM  Co1       
:e__0003: OVERALL ENERGY PARAMETER IS    0.3000
          OVERALL BASIS SET ON ATOM IS LAPW
:E1_0003: E( 1)=    0.3000
             APW+lo
:E1_0003: E( 1)=   -3.9228   E(BOTTOM)=   -3.958   E(TOP)=   -3.888  1  2   168
             LOCAL ORBITAL
:E2_0003: E( 2)=    0.2453   E(BOTTOM)=    0.007   E(TOP)=    0.483  0  1   124
             APW+lo
:E0_0003: E( 0)=    0.3000
             APW+lo

          ATOMIC SPHERE DEPENDENT PARAMETERS FOR ATOM  Co2       
:e__0004: OVERALL ENERGY PARAMETER IS    0.3000
          OVERALL BASIS SET ON ATOM IS LAPW
:E1_0004: E( 1)=    0.3000
             APW+lo
:E1_0004: E( 1)=   -3.9362   E(BOTTOM)=   -3.971   E(TOP)=   -3.901  1  2   165
             LOCAL ORBITAL
:E2_0004: E( 2)=    0.2316   E(BOTTOM)=   -0.007   E(TOP)=    0.470  0  1   133
             APW+lo
:E0_0004: E( 0)=    0.3000
             APW+lo

          ATOMIC SPHERE DEPENDENT PARAMETERS FOR ATOM  Tb1       
:e__0005: OVERALL ENERGY PARAMETER IS    0.3000
          OVERALL BASIS SET ON ATOM IS LAPW
:E0_0005: E( 0)=    0.3000
             APW+lo
:E0_0005: E( 0)=   -2.7876   E(BOTTOM)=   -2.983   E(TOP)=   -2.592  4  5   171
             LOCAL ORBITAL
:E1_0005: E( 1)=    0.7000
             APW+lo
:E1_0005: E( 1)=   -1.0712   E(BOTTOM)=   -1.505   E(TOP)=   -0.638  3  4   162
             LOCAL ORBITAL
:E3_0005: E( 3)=    0.3159   E(BOTTOM)=    0.252   E(TOP)=    0.379  0  1   111
             APW+lo
:E2_0005: E( 2)=    0.3000   E(BOTTOM)=    0.271   E(TOP)= -520.000  2 -1    83
             APW+lo

       K=  0.031250  0.031250  0.029412            1
:RKM  : MATRIX SIZE   653LOs:  80  RKM= 9.00  WEIGHT= 2.00  PGR:    
       EIGENVALUES ARE:
:EIG00001:      -3.9379904   -3.9320679   -3.9300959   -3.9281788   -3.9281348
:EIG00006:      -3.9276976   -3.9276797   -3.9170085   -3.9169322   -3.9156137
:EIG00011:      -3.9155817   -3.9118642   -3.9086993   -3.9086411   -3.9054383
:EIG00016:      -2.7525436   -1.0525113   -1.0524273   -1.0267005   -0.1389408
:EIG00021:       0.0709029    0.1506661    0.1534734    0.1538417    0.1570933
:EIG00026:       0.1581674    0.1750503    0.1756078    0.1874073    0.1909116
:EIG00031:       0.2218838    0.2225269    0.2580863    0.2587756    0.2832354
:EIG00036:       0.2955447    0.2958110    0.3160865    0.3214615    0.3222974
:EIG00041:       0.3229238    0.3258488    0.3274783    0.3276757    0.3278138
:EIG00046:       0.3310308    0.3313760    0.3338434    0.3340308    0.3847153

:EIG00051:       0.3875152    0.3966818    0.4865589    0.5447441    0.5472368
:EIG00056:       0.5718456    0.6389543    0.6649429    0.6807535    0.8569265
:EIG00061:       0.8597961    1.0502046    1.1215788    1.1257824    1.2058235
:EIG00066:       1.2350108    1.2775824    1.2844786    1.3230734    1.3506395
:EIG00071:       1.3646218    1.4979357    1.5124198    1.6065443    1.6080776
:EIG00076:       1.7609888    1.7723096    1.9707820    1.9774962    2.1211433
:EIG00081:       2.1727044    2.1874595    2.1924146    2.2340205    2.2476753
:EIG00086:       2.2701219    2.3102756    2.3339323    2.3789071    2.3796121
:EIG00091:       2.5417528    2.6440848    2.6526810    2.7145104    2.7783889
:EIG00096:       2.8161852    2.8311886    2.8367570    2.8516958    2.8755240

:EIG00101:       2.8966754    2.9169376    3.0071696    3.0205487    3.0891606
:EIG00106:       3.1164046    3.1355962    3.1461850    3.2288054    3.2315154
:EIG00111:       3.2970746    3.3573318    3.3747820    3.4362913    3.4420318
:EIG00116:       3.4759680    3.5285030    3.5868750    3.6062196    3.6507440
:EIG00121:       3.6552031    3.7067630    3.8646951    3.9011858    3.9292862
:EIG00126:       3.9308220    3.9812022    4.0288582    4.0761522    4.1240208
:EIG00131:       4.1967395    4.2028582    4.2575164    4.2818187    4.2899519
:EIG00136:       4.3111958    4.3191916    4.3319192    4.4483094    4.4535415
:EIG00141:       4.4676850    4.4781276    4.5227615    4.5476725    4.5948621
:EIG00146:       4.6027925    4.6484879    4.6665517    4.6808234    4.6906519

:EIG00151:       4.7038544    4.7573835    4.7673544    4.8173611    4.8300601
:EIG00156:       4.8720551    4.9042397    4.9153395    4.9657566    5.0288428
:EIG00161:       5.0366740    5.0605314    5.0931946    5.1632774    5.2059157
:EIG00166:       5.2156767    5.2614946    5.3255651    5.3321354    5.3360263
:EIG00171:       5.4827607
       ********************************************************

:KPT   :      NUMBER OF K-POINTS:    2176
:LMAX-WF:   10   Non-Spherical LMAX:   6

          ATOMIC SPHERE DEPENDENT PARAMETERS FOR ATOM  Co1       
:e__0001: OVERALL ENERGY PARAMETER IS    0.3000
          OVERALL BASIS SET ON ATOM IS LAPW
:E1_0001: E( 1)=    0.3000
             APW+lo
:E1_0001: E( 1)=   -3.6881   E(BOTTOM)=   -3.726   E(TOP)=   -3.650  1  2   191
             LOCAL ORBITAL
:E2_0001: E( 2)=    0.4541   E(BOTTOM)=    0.190   E(TOP)=    0.719  0  1   128
             APW+lo
:E0_0001: E( 0)=    0.3000
             APW+lo

          ATOMIC SPHERE DEPENDENT PARAMETERS FOR ATOM  Co1       
:e__0002: OVERALL ENERGY PARAMETER IS    0.3000
          OVERALL BASIS SET ON ATOM IS LAPW
:E1_0002: E( 1)=    0.3000
             APW+lo
:E1_0002: E( 1)=   -3.6882   E(BOTTOM)=   -3.726   E(TOP)=   -3.650  1  2   191
             LOCAL ORBITAL
:E2_0002: E( 2)=    0.4541   E(BOTTOM)=    0.190   E(TOP)=    0.719  0  1   130
             APW+lo
:E0_0002: E( 0)=    0.3000
             APW+lo

          ATOMIC SPHERE DEPENDENT PARAMETERS FOR ATOM  Co1       
:e__0003: OVERALL ENERGY PARAMETER IS    0.3000
          OVERALL BASIS SET ON ATOM IS LAPW
:E1_0003: E( 1)=    0.3000
             APW+lo
:E1_0003: E( 1)=   -3.6881   E(BOTTOM)=   -3.726   E(TOP)=   -3.650  1  2   192
             LOCAL ORBITAL
:E2_0003: E( 2)=    0.4541   E(BOTTOM)=    0.190   E(TOP)=    0.719  0  1   127
             APW+lo
:E0_0003: E( 0)=    0.3000
             APW+lo

          ATOMIC SPHERE DEPENDENT PARAMETERS FOR ATOM  Co2       
:e__0004: OVERALL ENERGY PARAMETER IS    0.3000
          OVERALL BASIS SET ON ATOM IS LAPW
:E1_0004: E( 1)=    0.3000
             APW+lo
:E1_0004: E( 1)=   -3.7014   E(BOTTOM)=   -3.740   E(TOP)=   -3.663  1  2   183
             LOCAL ORBITAL
:E2_0004: E( 2)=    0.4407   E(BOTTOM)=    0.176   E(TOP)=    0.705  0  1   129
             APW+lo
:E0_0004: E( 0)=    0.3000
             APW+lo

          ATOMIC SPHERE DEPENDENT PARAMETERS FOR ATOM  Tb1       
:e__0005: OVERALL ENERGY PARAMETER IS    0.3000
          OVERALL BASIS SET ON ATOM IS LAPW
:E0_0005: E( 0)=    0.3000
             APW+lo
:E0_0005: E( 0)=   -2.5786   E(BOTTOM)=   -2.791   E(TOP)=   -2.366  4  5   197
             LOCAL ORBITAL
:E1_0005: E( 1)=    0.7000
             APW+lo
:E1_0005: E( 1)=   -0.9026   E(BOTTOM)=   -1.362   E(TOP)=   -0.443  3  4   179
             LOCAL ORBITAL
:E3_0005: E( 3)=    0.6569   E(BOTTOM)=    0.575   E(TOP)=    0.739  0  1   138
             APW+lo
:E2_0005: E( 2)=    0.3735   E(BOTTOM)=    0.374   E(TOP)= -520.000  2 -1    87
             APW+lo

       K=  0.031250  0.031250  0.029412            1
:RKM  : MATRIX SIZE   653LOs:  80  RKM= 9.00  WEIGHT= 2.00  PGR:    
       EIGENVALUES ARE:
:EIG00001:      -3.7038131   -3.6974267   -3.6955406   -3.6928403   -3.6928015
:EIG00006:      -3.6923934   -3.6923714   -3.6816490   -3.6815683   -3.6802541
:EIG00011:      -3.6802139   -3.6758031   -3.6728827   -3.6728151   -3.6694833
:EIG00016:      -2.5417102   -0.8924106   -0.8922910   -0.8630799   -0.0747146
:EIG00021:       0.2202924    0.2753794    0.2837963    0.3170147    0.3284546
:EIG00026:       0.3286238    0.3331606    0.3370197    0.3601209    0.3604995
:EIG00031:       0.4096985    0.4103455    0.4451137    0.4464157    0.4914445
:EIG00036:       0.5023056    0.5026826    0.5249337    0.5249884    0.5375087
:EIG00041:       0.5468169    0.5470515    0.5728137    0.5999214    0.6133233
:EIG00046:       0.6212823    0.6230890    0.6527305    0.6560464    0.6665325

:EIG00051:       0.6734145    0.6735314    0.6892003    0.6974247    0.7038004
:EIG00056:       0.7321521    0.7481924    0.7634597    0.7971959    0.9661105
:EIG00061:       0.9688388    1.1708095    1.2316780    1.2370382    1.3061625
:EIG00066:       1.3285500    1.3712128    1.3731295    1.3997211    1.4531584
:EIG00071:       1.4592555    1.5792431    1.5986262    1.6673927    1.6756561
:EIG00076:       1.8363622    1.8473112    2.0615247    2.0671942    2.1911391
:EIG00081:       2.2174813    2.2317003    2.2467219    2.2948931    2.3124315
:EIG00086:       2.3343838    2.3763704    2.4014766    2.4472551    2.4478629
:EIG00091:       2.5852579    2.6993660    2.7100416    2.7544099    2.8459923
:EIG00096:       2.8817085    2.9139730    2.9239786    2.9319261    2.9356123

:EIG00101:       2.9685830    2.9765144    3.0505706    3.0645222    3.1541759
:EIG00106:       3.1776568    3.1806354    3.1989729    3.2951685    3.2980032
:EIG00111:       3.3581095    3.4150565    3.4422843    3.4957440    3.4996862
:EIG00116:       3.5321362    3.5891013    3.6451597    3.6709120    3.7175248
:EIG00121:       3.7183890    3.7789565    3.9223950    3.9717425    3.9971747
:EIG00126:       3.9990921    4.0328760    4.0862727    4.1425803    4.2045756
:EIG00131:       4.2571138    4.2637002    4.3154283    4.3417183    4.3471723
:EIG00136:       4.3750808    4.3929209    4.3970664    4.5139950    4.5166197
:EIG00141:       4.5239436    4.5362735    4.5815156    4.6075630    4.6419190
:EIG00146:       4.6495625    4.6961313    4.7184892    4.7268422    4.7415648

:EIG00151:       4.7525236    4.8107575    4.8242557    4.8766476    4.8893988
:EIG00156:       4.9348553    4.9552504    4.9674392    5.0351566    5.0888481
:EIG00161:       5.0986622    5.1267772    5.1541152    5.2254914    5.2800901
:EIG00166:       5.2916277    5.3211406    5.3824742    5.4023867    5.4127389
       ********************************************************

:KPT   :      NUMBER OF K-POINTS:    2176
  Potential not averaged when calculating dV/dr
  30.0 -30.0 angle (M,z), angle (M,x) deg

        SPIN-ORBIT EIGENVALUES:
     K=  0.031250  0.031250  0.029412            1
      MATRIX SIZE=  341   WEIGHT= 2.00
     EIGENVALUES ARE:
          -3.9869070   -3.9864895   -3.9774761   -3.9755859   -3.9689404
          -3.9522840   -3.9494769   -3.9364809   -3.9338669   -3.9307377
          -3.8840630   -3.8826684   -3.8734308   -3.8715355   -3.8649270
          -3.7189377   -3.7186824   -3.7103907   -3.7079442   -3.7004779
          -3.6858525   -3.6821575   -3.6693129   -3.6662889   -3.6626300
          -3.6492528   -3.6471495   -3.6387831   -3.6360678   -3.6294562
          -2.7525436   -2.5417102   -1.2158860   -1.1577436   -0.9516332
          -0.8696685   -0.8192727   -0.7931098   -0.1389307   -0.0747021

           0.0708324    0.1505214    0.1532791    0.1537689    0.1568575
           0.1581962    0.1740836    0.1762954    0.1872848    0.1907766
           0.2201521    0.2203255    0.2235885    0.2570035    0.2598447
           0.2752468    0.2826078    0.2835854    0.2932039    0.2956596
           0.2979497    0.3096912    0.3165330    0.3175349    0.3181421
           0.3227435    0.3249523    0.3257471    0.3277269    0.3287717
           0.3321211    0.3332664    0.3337267    0.3358514    0.3372546
           0.3415562    0.3524197    0.3588576    0.3616062    0.3847598

           0.3881750    0.3969084    0.4080742    0.4119132    0.4441928
           0.4474225    0.4868258    0.4912561    0.5006109    0.5048319
           0.5211712    0.5288889    0.5374051    0.5444401    0.5465216
           0.5473362    0.5482006    0.5717754    0.5728417    0.5983159
           0.6132452    0.6213256    0.6230064    0.6389584    0.6472184
           0.6577633    0.6606477    0.6649289    0.6675427    0.6820194
           0.6884462    0.6972913    0.7002877    0.7043872    0.7345161
           0.7484681    0.7650353    0.7971040    0.8542535    0.8623580

           0.9634529    0.9708381    1.0502648    1.1170544    1.1302638
           1.1708305    1.2058491    1.2281520    1.2351461    1.2406604
           1.2775053    1.2837503    1.3062755    1.3224789    1.3286340
           1.3504330    1.3645498    1.3709556    1.3725771    1.4006933
           1.4529188    1.4595730    1.4980629    1.5126472    1.5790034
           1.5980257    1.6080481    1.6093456    1.6675101    1.6739785
           1.7607992    1.7772565    1.8343180    1.8522785
       ********************************************************
:GAP (global)   :    0.0    Ry =     0.0   eV (metal)
:GAP (this spin):    0.0    Ry =     0.0   eV (metal)
         Bandranges (emin - emax) and occupancy:
:BAN00087:  87    0.406563    0.490981  1.00000000
:BAN00088:  88    0.408058    0.499804  1.00000000
:BAN00089:  89    0.432580    0.505717  1.00000000
:BAN00090:  90    0.442888    0.513728  1.00000000
:BAN00091:  91    0.445274    0.521488  0.99999899
:BAN00092:  92    0.452761    0.529102  0.97198569
:BAN00093:  93    0.481876    0.537562  0.93022093
:BAN00094:  94    0.486775    0.545113  0.78734663
:BAN00095:  95    0.493992    0.546522  0.27900115
:BAN00096:  96    0.511325    0.547669  0.03117069
:BAN00097:  97    0.518891    0.553272  0.00027608
:BAN00098:  98    0.531660    0.571775  0.00000000
:BAN00099:  99    0.539269    0.594127  0.00000000
:BAN00100: 100    0.545634    0.601146  0.00000000
:BAN00101: 101    0.553366    0.614691  0.00000000
:BAN00102: 102    0.563897    0.638696  0.00000000
        Energy to separate low and high energystates:   -0.19030


:NOE  : NUMBER OF ELECTRONS          =   94.000

:FER  : F E R M I - ENERGY(TETRAH.M.)=   0.5214711122
:GMA  : POTENTIAL AND CHARGE CUT-OFF  16.00 Ry**.5
 
:POS001: ATOM   -1 X,Y,Z = 0.50000 0.00000 0.50000  MULT= 1  ZZ= 27.000  Co1
 
       LMMAX 16
       LM=   0 0  2 0  2 2 -2 2  4 0  4 2 -4 2  4 4 -4 4  6 0  6 2 -6 2  6 4 -6 4  6 6 -6 6
 
:CHA001: TOTAL VALENCE CHARGE INSIDE SPHERE   1 =   7.9788    (RMT=  2.3000 )
:PCS001: PARTIAL CHARGES SPHERE =  1 S,P,D,F,PX,PY,PZ,D-Z2,D-X2Y2,D-XY,D-XZ,D-YZ
:QTL001: 0.2407 3.2110 4.5093 0.0131 1.0557 1.0804 1.0752 0.8955 0.8980 0.9068 0.9085 0.9005
        Q-s-low E-s-low   Q-p-low E-p-low   Q-d-low E-d-low   Q-f-low E-f-low
:EPL001:  0.0000 10.0000    2.9952 -3.9150    0.0000 10.0000    0.0000 10.0000
        Q-s-hi  E-s-hi    Q-p-hi  E-p-hi    Q-d-hi  E-d-hi    Q-f-hi  E-f-hi
:EPH001:  0.2401  0.1205    0.2156  0.2653    4.5083  0.2665    0.0130  0.2599
 
                      QXX         QXY         QYY         QZZ       UP TO R
:VZZ001:             1.66536    -2.49553    -1.22171    -0.44367       2.300
 
:POS002: ATOM   -2 X,Y,Z = 0.00000 0.50000 0.50000  MULT= 1  ZZ= 27.000  Co1
 
       LMMAX 16
       LM=   0 0  2 0  2 2 -2 2  4 0  4 2 -4 2  4 4 -4 4  6 0  6 2 -6 2  6 4 -6 4  6 6 -6 6
 
:CHA002: TOTAL VALENCE CHARGE INSIDE SPHERE   2 =   7.9790    (RMT=  2.3000 )
:PCS002: PARTIAL CHARGES SPHERE =  2 S,P,D,F,PX,PY,PZ,D-Z2,D-X2Y2,D-XY,D-XZ,D-YZ
:QTL002: 0.2406 3.2110 4.5093 0.0132 1.0928 1.0436 1.0749 0.8951 0.9108 0.8943 0.8963 0.9126
        Q-s-low E-s-low   Q-p-low E-p-low   Q-d-low E-d-low   Q-f-low E-f-low
:EPL002:  0.0000 10.0000    2.9952 -3.9150    0.0000 10.0000    0.0000 10.0000
        Q-s-hi  E-s-hi    Q-p-hi  E-p-hi    Q-d-hi  E-d-hi    Q-f-hi  E-f-hi
:EPH002:  0.2398  0.1205    0.2156  0.2653    4.5084  0.2665    0.0132  0.2603
 
                      QXX         QXY         QYY         QZZ       UP TO R
:VZZ002:            -2.65818     0.00164     3.10317    -0.44504       2.300
 
:POS003: ATOM   -3 X,Y,Z = 0.50000 0.50000 0.50000  MULT= 1  ZZ= 27.000  Co1
 
       LMMAX 16
       LM=   0 0  2 0  2 2 -2 2  4 0  4 2 -4 2  4 4 -4 4  6 0  6 2 -6 2  6 4 -6 4  6 6 -6 6
 
:CHA003: TOTAL VALENCE CHARGE INSIDE SPHERE   3 =   7.9787    (RMT=  2.3000 )
:PCS003: PARTIAL CHARGES SPHERE =  3 S,P,D,F,PX,PY,PZ,D-Z2,D-X2Y2,D-XY,D-XZ,D-YZ
:QTL003: 0.2405 3.2111 4.5094 0.0131 1.0560 1.0804 1.0746 0.8951 0.8979 0.9067 0.9085 0.9007
        Q-s-low E-s-low   Q-p-low E-p-low   Q-d-low E-d-low   Q-f-low E-f-low
:EPL003:  0.0000 10.0000    2.9952 -3.9150    0.0000 10.0000    0.0000 10.0000
        Q-s-hi  E-s-hi    Q-p-hi  E-p-hi    Q-d-hi  E-d-hi    Q-f-hi  E-f-hi
:EPH003:  0.2399  0.1204    0.2158  0.2653    4.5086  0.2665    0.0130  0.2600
 
                      QXX         QXY         QYY         QZZ       UP TO R
:VZZ003:             1.65621     2.50004    -1.23204    -0.42422       2.300
 
:POS004: ATOM   -4 X,Y,Z = 0.33333 0.66667 0.00000  MULT= 2  ZZ= 27.000  Co2
 
       LMMAX 28
       LM=   0 0  1 1 -1 1  2 0  2 2 -2 2  3 1 -3 1  3 3 -3 3  4 0  4 2 -4 2  4 4 -4 4  5 1 -5 1
         5 3 -5 3  5 5 -5 5  6 0  6 2 -6 2  6 4 -6 4  6 6 -6 6
 
:CHA004: TOTAL VALENCE CHARGE INSIDE SPHERE   4 =   7.9969    (RMT=  2.3000 )
:PCS004: PARTIAL CHARGES SPHERE =  4 S,P,D,F,PX,PY,PZ,D-Z2,D-X2Y2,D-XY,D-XZ,D-YZ
:QTL004: 0.2509 3.2117 4.5172 0.0128 1.0608 1.0607 1.0903 0.9109 0.9096 0.9095 0.8936 0.8932
        Q-s-low E-s-low   Q-p-low E-p-low   Q-d-low E-d-low   Q-f-low E-f-low
:EPL004:  0.0024 -1.1386    2.9958 -3.9271    0.0025 -1.3725    0.0000 10.0000
        Q-s-hi  E-s-hi    Q-p-hi  E-p-hi    Q-d-hi  E-d-hi    Q-f-hi  E-f-hi
:EPH004:  0.2490  0.1401    0.2153  0.2754    4.5153  0.2533    0.0126  0.2699
 
                      QXX         QXY         QYY         QZZ       UP TO R
:VZZ004:             1.09409    -0.00594     1.09964    -2.19371       2.300
 
:POS005: ATOM   -5 X,Y,Z = 0.00000 0.00000 0.00000  MULT= 1  ZZ= 65.000  Tb1
 
       LMMAX 16
       LM=   0 0  2 0  2 2 -2 2  4 0  4 2 -4 2  4 4 -4 4  6 0  6 2 -6 2  6 4 -6 4  6 6 -6 6
 
:CHA005: TOTAL VALENCE CHARGE INSIDE SPHERE   5 =  11.0169    (RMT=  2.5000 )
:PCS005: PARTIAL CHARGES SPHERE =  5 S,P,D,F,PX,PY,PZ,D-Z2,D-X2Y2,D-XY,D-XZ,D-YZ
:QTL005: 1.0472 2.8708 0.2291 6.8675 0.9591 0.9592 0.9521 0.0310 0.0631 0.0630 0.0359 0.0363
        Q-s-low E-s-low   Q-p-low E-p-low   Q-d-low E-d-low   Q-f-low E-f-low
:EPL005:  0.9856 -2.7523    2.7793 -1.0536    0.0000 10.0000    0.0000 10.0000
        Q-s-hi  E-s-hi    Q-p-hi  E-p-hi    Q-d-hi  E-d-hi    Q-f-hi  E-f-hi
:EPH005:  0.0623  0.2082    0.0916  0.2432    0.2290  0.2992    6.8675  0.3262
 
                      QXX         QXY         QYY         QZZ       UP TO R
:VZZ005:            -2.98296    -0.06457    -3.14432     6.12734       2.500
 
:CHA  : TOTAL VALENCE CHARGE INSIDE UNIT CELL =      54.486806
 
:SUM  : SUM OF EIGENVALUES =         -55.289249313
 
:GAP (global)   :    0.0    Ry =     0.0   eV (metal)
:GAP (this spin):    0.0    Ry =     0.0   eV (metal)
         Bandranges (emin - emax) and occupancy:
:BAN00087:  87    0.406563    0.490981  1.00000000
:BAN00088:  88    0.408058    0.499804  1.00000000
:BAN00089:  89    0.432580    0.505717  1.00000000
:BAN00090:  90    0.442888    0.513728  1.00000000
:BAN00091:  91    0.445274    0.521488  0.99999899
:BAN00092:  92    0.452761    0.529102  0.97198569
:BAN00093:  93    0.481876    0.537562  0.93022093
:BAN00094:  94    0.486775    0.545113  0.78734663
:BAN00095:  95    0.493992    0.546522  0.27900115
:BAN00096:  96    0.511325    0.547669  0.03117069
:BAN00097:  97    0.518891    0.553272  0.00027608
:BAN00098:  98    0.531660    0.571775  0.00000000
:BAN00099:  99    0.539269    0.594127  0.00000000
:BAN00100: 100    0.545634    0.601146  0.00000000
:BAN00101: 101    0.553366    0.614691  0.00000000
:BAN00102: 102    0.563897    0.638696  0.00000000
        Energy to separate low and high energystates:   -0.19030


:NOE  : NUMBER OF ELECTRONS          =   94.000

:FER  : F E R M I - ENERGY(TETRAH.M.)=   0.5214711122
:GMA  : POTENTIAL AND CHARGE CUT-OFF  16.00 Ry**.5
 
:POS001: ATOM   -1 X,Y,Z = 0.50000 0.00000 0.50000  MULT= 1  ZZ= 27.000  Co1
 
       LMMAX 16
       LM=   0 0  2 0  2 2 -2 2  4 0  4 2 -4 2  4 4 -4 4  6 0  6 2 -6 2  6 4 -6 4  6 6 -6 6
 
:CHA001: TOTAL VALENCE CHARGE INSIDE SPHERE   1 =   6.1698    (RMT=  2.3000 )
:PCS001: PARTIAL CHARGES SPHERE =  1 S,P,D,F,PX,PY,PZ,D-Z2,D-X2Y2,D-XY,D-XZ,D-YZ
:QTL001: 0.2404 3.2250 2.6876 0.0130 1.0614 1.0844 1.0795 0.5812 0.5494 0.5117 0.5049 0.5410
        Q-s-low E-s-low   Q-p-low E-p-low   Q-d-low E-d-low   Q-f-low E-f-low
:EPL001:  0.0000 10.0000    2.9952 -3.6796    0.0000 10.0000    0.0000 10.0000
        Q-s-hi  E-s-hi    Q-p-hi  E-p-hi    Q-d-hi  E-d-hi    Q-f-hi  E-f-hi
:EPH001:  0.2394  0.1824    0.2302  0.3409    2.6869  0.4014    0.0128  0.3999
 
                      QXX         QXY         QYY         QZZ       UP TO R
:VZZ001:             2.05824    -1.86854    -0.09447    -1.96375       2.300
 
:POS002: ATOM   -2 X,Y,Z = 0.00000 0.50000 0.50000  MULT= 1  ZZ= 27.000  Co1
 
       LMMAX 16
       LM=   0 0  2 0  2 2 -2 2  4 0  4 2 -4 2  4 4 -4 4  6 0  6 2 -6 2  6 4 -6 4  6 6 -6 6
 
:CHA002: TOTAL VALENCE CHARGE INSIDE SPHERE   2 =   6.1701    (RMT=  2.3000 )
:PCS002: PARTIAL CHARGES SPHERE =  2 S,P,D,F,PX,PY,PZ,D-Z2,D-X2Y2,D-XY,D-XZ,D-YZ
:QTL002: 0.2401 3.2255 2.6877 0.0130 1.0961 1.0497 1.0796 0.5812 0.4933 0.5679 0.5588 0.4868
        Q-s-low E-s-low   Q-p-low E-p-low   Q-d-low E-d-low   Q-f-low E-f-low
:EPL002:  0.0000 10.0000    2.9952 -3.6796    0.0000 10.0000    0.0000 10.0000
        Q-s-hi  E-s-hi    Q-p-hi  E-p-hi    Q-d-hi  E-d-hi    Q-f-hi  E-f-hi
:EPH002:  0.2394  0.1824    0.2305  0.3409    2.6868  0.4014    0.0128  0.4000
 
                      QXX         QXY         QYY         QZZ       UP TO R
:VZZ002:            -1.18378     0.00680     3.14169    -1.95787       2.300
 
:POS003: ATOM   -3 X,Y,Z = 0.50000 0.50000 0.50000  MULT= 1  ZZ= 27.000  Co1
 
       LMMAX 16
       LM=   0 0  2 0  2 2 -2 2  4 0  4 2 -4 2  4 4 -4 4  6 0  6 2 -6 2  6 4 -6 4  6 6 -6 6
 
:CHA003: TOTAL VALENCE CHARGE INSIDE SPHERE   3 =   6.1698    (RMT=  2.3000 )
:PCS003: PARTIAL CHARGES SPHERE =  3 S,P,D,F,PX,PY,PZ,D-Z2,D-X2Y2,D-XY,D-XZ,D-YZ
:QTL003: 0.2403 3.2253 2.6875 0.0130 1.0613 1.0846 1.0795 0.5811 0.5487 0.5120 0.5052 0.5406
        Q-s-low E-s-low   Q-p-low E-p-low   Q-d-low E-d-low   Q-f-low E-f-low
:EPL003:  0.0000 10.0000    2.9952 -3.6796    0.0000 10.0000    0.0000 10.0000
        Q-s-hi  E-s-hi    Q-p-hi  E-p-hi    Q-d-hi  E-d-hi    Q-f-hi  E-f-hi
:EPH003:  0.2395  0.1824    0.2305  0.3410    2.6866  0.4014    0.0128  0.3999
 
                      QXX         QXY         QYY         QZZ       UP TO R
:VZZ003:             2.05782     1.87249    -0.08283    -1.97493       2.300
 
:POS004: ATOM   -4 X,Y,Z = 0.33333 0.66667 0.00000  MULT= 2  ZZ= 27.000  Co2
 
       LMMAX 28
       LM=   0 0  1 1 -1 1  2 0  2 2 -2 2  3 1 -3 1  3 3 -3 3  4 0  4 2 -4 2  4 4 -4 4  5 1 -5 1
         5 3 -5 3  5 5 -5 5  6 0  6 2 -6 2  6 4 -6 4  6 6 -6 6
 
:CHA004: TOTAL VALENCE CHARGE INSIDE SPHERE   4 =   6.4393    (RMT=  2.3000 )
:PCS004: PARTIAL CHARGES SPHERE =  4 S,P,D,F,PX,PY,PZ,D-Z2,D-X2Y2,D-XY,D-XZ,D-YZ
:QTL004: 0.2334 3.2202 2.9703 0.0128 1.0607 1.0608 1.0986 0.5567 0.6222 0.6218 0.5846 0.5845
        Q-s-low E-s-low   Q-p-low E-p-low   Q-d-low E-d-low   Q-f-low E-f-low
:EPL004:  0.0026 -0.9864    2.9952 -3.6913    0.0032 -1.2405    0.0000 10.0000
        Q-s-hi  E-s-hi    Q-p-hi  E-p-hi    Q-d-hi  E-d-hi    Q-f-hi  E-f-hi
:EPH004:  0.2314  0.1795    0.2241  0.3428    2.9676  0.4012    0.0123  0.4128
 
                      QXX         QXY         QYY         QZZ       UP TO R
:VZZ004:            -0.07680     0.00277    -0.07511     0.15196       2.300
 
:POS005: ATOM   -5 X,Y,Z = 0.00000 0.00000 0.00000  MULT= 1  ZZ= 65.000  Tb1
 
       LMMAX 16
       LM=   0 0  2 0  2 2 -2 2  4 0  4 2 -4 2  4 4 -4 4  6 0  6 2 -6 2  6 4 -6 4  6 6 -6 6
 
:CHA005: TOTAL VALENCE CHARGE INSIDE SPHERE   5 =   4.2697    (RMT=  2.5000 )
:PCS005: PARTIAL CHARGES SPHERE =  5 S,P,D,F,PX,PY,PZ,D-Z2,D-X2Y2,D-XY,D-XZ,D-YZ
:QTL005: 1.0423 2.8559 0.2561 0.1135 0.9534 0.9536 0.9484 0.0366 0.0629 0.0625 0.0475 0.0473
        Q-s-low E-s-low   Q-p-low E-p-low   Q-d-low E-d-low   Q-f-low E-f-low
:EPL005:  0.9824 -2.5414    2.7423 -0.8933    0.0000 10.0000    0.0000 10.0000
        Q-s-hi  E-s-hi    Q-p-hi  E-p-hi    Q-d-hi  E-d-hi    Q-f-hi  E-f-hi
:EPH005:  0.0594  0.2451    0.1135  0.3307    0.2561  0.3724    0.1135  0.3986
 
                      QXX         QXY         QYY         QZZ       UP TO R
:VZZ005:            -1.76707     0.06486    -1.69078     3.45786       2.500
 
:CHA  : TOTAL VALENCE CHARGE INSIDE UNIT CELL =      39.513194
 
:SUM  : SUM OF EIGENVALUES =         -52.903153121
 

        1.ATOM      Co1                   5 CORE STATES
:1S 001: 1S                -556.892924096 Ry
:2S 001: 2S                 -65.049348865 Ry
:2PP001: 2P*                -56.279521815 Ry
:2P 001: 2P                 -55.191392014 Ry
:3S 001: 3S                  -6.614714778 Ry

        2.ATOM      Co1                   5 CORE STATES
:1S 002: 1S                -556.892930590 Ry
:2S 002: 2S                 -65.049355364 Ry
:2PP002: 2P*                -56.279528313 Ry
:2P 002: 2P                 -55.191398512 Ry
:3S 002: 3S                  -6.614722315 Ry

        3.ATOM      Co1                   5 CORE STATES
:1S 003: 1S                -556.892922574 Ry
:2S 003: 2S                 -65.049347344 Ry
:2PP003: 2P*                -56.279520294 Ry
:2P 003: 2P                 -55.191390493 Ry
:3S 003: 3S                  -6.614713256 Ry

        4.ATOM      Co2                   5 CORE STATES
       CORE-FORCE in mRy/a.u. = |F|      Fx             Fy             Fz
:FCO004:   4.ATOM      0.048978132541     -0.048950202544      0.001653825307      0.000000000000

:1S 004: 1S                -556.905437689 Ry
:2S 004: 2S                 -65.061959537 Ry
:2PP004: 2P*                -56.292111357 Ry
:2P 004: 2P                 -55.203983665 Ry
:3S 004: 3S                  -6.628017308 Ry

        5.ATOM      Tb1                  14 CORE STATES
:1S 005: 1S               -3806.944616609 Ry
:2S 005: 2S                -630.168838152 Ry
:2PP005: 2P*               -598.753002839 Ry
:2P 005: 2P                -543.881139677 Ry
:3S 005: 3S                -139.372518086 Ry
:3PP005: 3P*               -125.717511023 Ry
:3P 005: 3P                -114.402846912 Ry
:3DD005: 3D*                -90.891291675 Ry
:3D 005: 3D                 -88.423957579 Ry
:4S 005: 4S                 -27.260774669 Ry
:4PP005: 4P*                -21.912797419 Ry
:4P 005: 4P                 -19.381834007 Ry
:4DD005: 4D*                -10.577225552 Ry
:4D 005: 4D                 -10.118287760 Ry

        1.ATOM      Co1                   5 CORE STATES
:1S 001: 1S                -556.893129623 Ry
:2S 001: 2S                 -64.937677480 Ry
:2PP001: 2P*                -56.196982022 Ry
:2P 001: 2P                 -55.106254558 Ry
:3S 001: 3S                  -6.373866816 Ry

        2.ATOM      Co1                   5 CORE STATES
:1S 002: 1S                -556.893136117 Ry
:2S 002: 2S                 -64.937683979 Ry
:2PP002: 2P*                -56.196988520 Ry
:2P 002: 2P                 -55.106261056 Ry
:3S 002: 3S                  -6.373871607 Ry

        3.ATOM      Co1                   5 CORE STATES
:1S 003: 1S                -556.893128101 Ry
:2S 003: 2S                 -64.937675959 Ry
:2PP003: 2P*                -56.196980501 Ry
:2P 003: 2P                 -55.106253037 Ry
:3S 003: 3S                  -6.373865294 Ry

        4.ATOM      Co2                   5 CORE STATES
       CORE-FORCE in mRy/a.u. = |F|      Fx             Fy             Fz
:FCO004:   4.ATOM      0.047647649123     -0.047618938549      0.001653831449      0.000000000000

:1S 004: 1S                -556.905641499 Ry
:2S 004: 2S                 -64.950272721 Ry
:2PP004: 2P*                -56.209558972 Ry
:2P 004: 2P                 -55.118833331 Ry
:3S 004: 3S                  -6.387066187 Ry

        5.ATOM      Tb1                  14 CORE STATES
:1S 005: 1S               -3806.944601699 Ry
:2S 005: 2S                -630.163304716 Ry
:2PP005: 2P*               -598.749769725 Ry
:2P 005: 2P                -543.876687190 Ry
:3S 005: 3S                -139.199665732 Ry
:3PP005: 3P*               -125.561681768 Ry
:3P 005: 3P                -114.223329110 Ry
:3DD005: 3D*                -90.762259274 Ry
:3D 005: 3D                 -88.288905927 Ry
:4S 005: 4S                 -26.867611544 Ry
:4PP005: 4P*                -21.520222848 Ry
:4P 005: 4P                 -18.994058854 Ry
:4DD005: 4D*                -10.191535295 Ry
:4D 005: 4D                  -9.734380088 Ry
:CINT001 Core Integral Atom   1 Up    5.99960915 Dn   5.999566 Total  11.99917473
:CINT002 Core Integral Atom   2 Up    5.99960893 Dn   5.999566 Total  11.99917486
:CINT003 Core Integral Atom   3 Up    5.99960915 Dn   5.999566 Total  11.99917473
:CINT004 Core Integral Atom   4 Up    5.99960875 Dn   5.999566 Total  11.99917462
:CINT005 Core Integral Atom   5 Up   22.99997624 Dn  22.999972 Total  45.99994861

       DENSITY AT NUCLEUS
        JATOM        VALENCE       SEMI-CORE          CORE           TOTAL
:RTO001:   1        8.614902        0.000000    17495.962050    17504.576951
:RTO002:   2        8.614849        0.000000    17495.962109    17504.576958
:RTO003:   3        8.613892        0.000000    17495.962050    17504.575941
:RTO004:   4        8.728020        0.000000    17495.942685    17504.670705
:RTO005:   5     1230.188000        0.000000  1219623.699687  1220853.887688

       HYPERFINE FIELDS FOR THOMSON RADIUS
:HFF001:           33.094           0.000        -362.599        -329.505 (KGAUSS)
:HFF002:           33.113           0.000        -362.706        -329.594 (KGAUSS)
:HFF003:           32.604           0.000        -362.599        -329.996 (KGAUSS)
:HFF004:          182.676           0.000        -363.497        -180.821 (KGAUSS)
:HFF005:         2435.210           0.000       -2547.920        -112.711 (KGAUSS)
:K-LIST:Reduced k-vector list    19745    2293
     
       CHARGES OF NEW CHARGE DENSITY
:NTO   : INTERSTITIAL      UP =     3.539620 DN =     3.854873 TOT =     7.394493
:NPC   : INTERSTITIAL      UP =    10.875760 DN =    10.164102 TOT =    21.039862
:NTO001: CHARGE SPHERE   1 UP =   13.978463 DN =   12.169581 TOT =   26.148045
:NTO002: CHARGE SPHERE   2 UP =   13.978506 DN =   12.169652 TOT =   26.148159
:NTO003: CHARGE SPHERE   3 UP =   13.978353 DN =   12.169452 TOT =   26.147806
:NTO004: CHARGE SPHERE   4 UP =   13.996438 DN =   12.438905 TOT =   26.435343
:NTO005: CHARGE SPHERE   5 UP =   34.017008 DN =   27.269627 TOT =   61.286635

:NEC01: NUCLEAR AND ELECTRONIC CHARGE    200.00000000   199.99582234 Plane Wave
     
       CHARGES OF OLD CHARGE DENSITY
:OTO   : INTERSTITIAL      UP =     4.000058 DN =     3.282715 TOT =     7.282773
:OPC   : INTERSTITIAL      UP =    14.090380 DN =     9.578846 TOT =    23.669226
:OTO001: CHARGE SPHERE   1 UP =   14.474701 DN =   11.521584 TOT =   25.996285
:OTO002: CHARGE SPHERE   2 UP =   14.474698 DN =   11.521582 TOT =   25.996280
:OTO003: CHARGE SPHERE   3 UP =   14.474701 DN =   11.521584 TOT =   25.996285
:OTO004: CHARGE SPHERE   4 UP =   14.477810 DN =   11.516740 TOT =   25.994549
:OTO005: CHARGE SPHERE   5 UP =   34.620218 DN =   28.119049 TOT =   62.739267

:NEC02: NUCLEAR AND ELECTRONIC CHARGE    200.00000000   199.99998808 Total

:VSOld: Total Rescaling   1.00000006
     
       CONVERGENCE TEST
:DTO001: DIFFERENCE SPHERE  1 UP =  0.6282014 DN =  0.5771898 TOT =  1.2053912
:DTO002: DIFFERENCE SPHERE  2 UP =  0.6281474 DN =  0.5772851 TOT =  1.2054326
:DTO003: DIFFERENCE SPHERE  3 UP =  0.6283291 DN =  0.5770467 TOT =  1.2053758
:DTO004: DIFFERENCE SPHERE  4 UP =  0.6179562 DN =  0.9074802 TOT =  1.5254364
:DTO005: DIFFERENCE SPHERE  5 UP =  0.3870989 DN =  1.4455415 TOT =  1.8326404

:DIS  :  CHARGE DISTANCE      (  1.4455415 for atom    5 spin 2)      2.8332376
 
******************************************************
* Multisecant Mixing Release 10.8.9                  *
* Standard Mode with step bound                      *
* Multisecant MSR1 Algorithm                         *
* Regularization       2.000E-04                     *
* Minimum Greed        1.000E-03                     *
* Max Number of Memory Steps    8                    *
******************************************************
 

:FULLRMS/Atom   1.3257219859
:PLANE:  PW /ATOM     1.12494 DISTAN   5.38E-01 %  4.78E+01
:CHARG:  CLM/ATOM   260.61572 DISTAN   7.44E-01 %  2.86E-01

Step History
        Dmix         Dmixt        Red     Pred      Step      Lambda    MagAbs    Beta
  1   3.5000E-01   3.5000E-01  1.00E+00  1.00E+00  1.00E-01  1.00E+00  1.14E-01  1.00E+00
:NOTE :  :INFO: Pratt in use
:TRUST:  Step  1.0E-01 Charge  3.3E-02 (e) CTO  2.2E-01 (e) PW  2.0E-01 (e)
:DIRP : |PRAT|= 4.843E-03 |PRATT|= 1.903E+00 ANGLE=   0.0 DEGREES
:DIRQ : |PRAT|= 6.697E-03 |PRATT|= 2.631E+00 ANGLE=   0.0 DEGREES
:DIRT : |PRAT|= 8.265E-03 |PRATT|= 3.247E+00 ANGLE=   0.0 DEGREES
  
:INFO: Pseudo Compensation for mesh of   64
  
:INFO: Pseudo Compensation Rescaling     9.99133E-01
  
:INFO: Pseudo Compensation Rescaling     1.00304E+00
  
:MIX  :  PRATT  REGULARIZATION:  2.00E-04 GREED: 0.00255                 
     
       CHARGES OF MIXED CHARGE DENSITY
:CTO   : INTERSTITIAL      UP =     3.998891 DN =     3.284177 TOT =     7.283068
:CPC   : INTERSTITIAL      UP =    12.416335 DN =     9.409363 TOT =    21.825698
:CTO001: CHARGE SPHERE   1 UP =   14.473439 DN =   11.523234 TOT =   25.996673
:CTO002: CHARGE SPHERE   2 UP =   14.473436 DN =   11.523232 TOT =   25.996668
:CTO003: CHARGE SPHERE   3 UP =   14.473439 DN =   11.523233 TOT =   25.996672
:CTO004: CHARGE SPHERE   4 UP =   14.476585 DN =   11.519087 TOT =   25.995673
:CTO005: CHARGE SPHERE   5 UP =   34.618685 DN =   28.116889 TOT =   62.735574

       SPIN MAGNETIC MOMENTS OF MIXED CHARGE DENSITY
:MMINT:  MAGNETIC MOMENT IN INTERSTITIAL  =    0.71471
:MMI001: MAGNETIC MOMENT IN SPHERE   1    =    2.95021
:MMI002: MAGNETIC MOMENT IN SPHERE   2    =    2.95020
:MMI003: MAGNETIC MOMENT IN SPHERE   3    =    2.95021
:MMI004: MAGNETIC MOMENT IN SPHERE   4    =    2.95750
:MMI005: MAGNETIC MOMENT IN SPHERE   5    =    6.50180
:MMTOT:  SPIN MAGNETIC MOMENT IN CELL     =   21.98212

:NEC03: NUCLEAR AND ELECTRONIC CHARGE    200.00000000   200.00000000

PW CHANGE     H    K    L      Current       Change    Residue
:PUP001:      0    0    0  2.87765399E-02 -2.937E-03 -6.428E-03
:PUP002:     -1    0    0  9.62717337E-04  3.416E-03  4.464E-03
:PUP003:     -1    1    0  9.62649735E-04  3.416E-03  4.463E-03
:PUP004:      0   -1    0  9.62699827E-04  3.416E-03  4.463E-03
:PUP005:      0    0   -1  5.16901370E-03  2.156E-03  3.362E-03
:PUP006:     -1    0   -1  6.26077488E-03  8.288E-04  1.486E-03
:PUP007:     -1    0    1  6.26077223E-03  8.288E-04  1.485E-03
:PUP008:     -1    1   -1  6.26081484E-03  8.289E-04  1.485E-03
:PUP009:     -1    1    1  6.26081243E-03  8.289E-04  1.484E-03
:PUP010:      0   -1   -1  6.26078838E-03  8.288E-04  1.485E-03
:PUP011:      0   -1    1  6.26078830E-03  8.288E-04  1.485E-03
:PUP012:     -2    1    0  6.29109546E-03 -2.380E-04 -9.702E-05
  
:PDN001:      0    0    0  2.22522764E-02 -2.945E-04  2.043E-03
:PDN002:     -1    0    0  1.83387834E-03  3.315E-03  3.942E-03
:PDN003:     -1    1    0  1.83383914E-03  3.315E-03  3.942E-03
:PDN004:      0   -1    0  1.83390733E-03  3.315E-03  3.942E-03
:PDN005:      0    0   -1  4.84951311E-03  2.763E-03  4.386E-03
:PDN006:     -1    0   -1  5.46070452E-03  1.843E-03  3.120E-03
:PDN007:     -1    0    1  5.46070492E-03  1.843E-03  3.120E-03
:PDN008:     -1    1   -1  5.46072994E-03  1.843E-03  3.120E-03
:PDN009:     -1    1    1  5.46073022E-03  1.843E-03  3.120E-03
:PDN010:      0   -1   -1  5.46067865E-03  1.843E-03  3.120E-03
:PDN011:      0   -1    1  5.46067892E-03  1.843E-03  3.120E-03
:PDN012:     -2    1    0  5.32701205E-03  1.188E-03  2.124E-03

:ENE  : ********** TOTAL ENERGY IN Ry =       -37373.14688076

:FOR001:   1.ATOM          0.000          0.000          0.000          0.000 partial forces
:FOR002:   2.ATOM          0.000          0.000          0.000          0.000 partial forces
:FOR003:   3.ATOM          0.000          0.000          0.000          0.000 partial forces
:FOR004:   4.ATOM          0.069          0.069         -0.002          0.000 partial forces
:FOR005:   5.ATOM          0.000          0.000          0.000          0.000 partial forces
       TOTAL FORCE WITH RESPECT TO THE GLOBAL COORDINATE SYSTEM:
:FGL001:   1.ATOM                 0.000000000     0.000000000     0.000000000 partial forces
:FGL002:   2.ATOM                 0.000000000     0.000000000     0.000000000 partial forces
:FGL003:   3.ATOM                 0.000000000     0.000000000     0.000000000 partial forces
:FGL004:   4.ATOM                 0.079774700     0.037823180     0.000000000 partial forces
:FGL005:   5.ATOM                 0.000000000     0.000000000     0.000000000 partial forces
 Euler-Maclaurian Coulomb
 Consistent 3/8+Simpson combinations at start/end
 New Mode for Coulomb Integral
 Extension of core to zero
 LDM version in phi
 Fifth-order quadrature in outwin
 Lebedev-Laikov Grid in lapw0


            ---------
:ITE002:  2. ITERATION
            ---------

:NATO :    5 INDEPENDENT AND    6 TOTAL ATOMS IN UNITCELL
       SUBSTANCE: blebleble                                s-o calc. M||  0.10

       LATTICE                      = H   
:LAT  : LATTICE CONSTANTS=  9.34658  9.34658  7.54001
:VOL  : UNIT CELL VOLUME =     570.43781
:POT  : POTENTIAL OPTION EX_PBE EC_PBE VX_PBE VC_PBE
       MODE OF CALCULATION IS       = RELA
       SPINPOLARIZED CALCULATION
:IFFT  : FFT-parameters:   96   96   80 Factor: 2.00


   CONVERGENCE PARAMETER FOR PSEUDOCHARGE: NCON=  9
   MAXIMAL VALUE OF RMT(JATOM)*ABSK(NKK) : RK  =39.99508


:VKCOUL :  VK-COUL convergence: 0.241E-09
 Lebedev grid of          350
 :rho_min:   2.0000000000000000E-008   1.0000000000000001E-009
:VCOUL001 ATOMNUMBER=  1 Co1     VCOUL-ZERO =  0.54509E+00
:EFG001:                        EFG         =    -0.12848   *10**21  V / m**2
                               V20  TOT/SRF=     0.01668     0.03226
                               V22  TOT/SRF=    -0.05940    -0.12355
                               V22M TOT/SRF=     0.10293     0.21405
                               V21  TOT/SRF=     0.00000     0.00000
                               V21M TOT/SRF=     0.00000     0.00000

             -0.06904    0.10293    0.00000       -0.12848    0.00000    0.00000
              0.10293    0.04977    0.00000        0.00000    0.10921    0.00000
              0.00000    0.00000    0.01927        0.00000    0.00000    0.01927

         MAIN DIRECTIONS OF THE EFG   1.0000  0.5775  0.0000
                                     -0.5775  1.0000  0.0000
                                     -0.0000 -0.0000  1.0000
:ANG001:  ANGLE WITH OLD X-AXIS =        30.0

:ETA001:                         ASYMM. ETA =     0.70010


:VCOUL002 ATOMNUMBER=  2 Co1     VCOUL-ZERO =  0.54508E+00
:EFG002:                        EFG         =    -0.12848   *10**21  V / m**2
                               V20  TOT/SRF=     0.01669     0.03226
                               V22  TOT/SRF=     0.11885     0.24717
                               V22M TOT/SRF=     0.00002     0.00000
                               V21  TOT/SRF=     0.00000     0.00000
                               V21M TOT/SRF=     0.00000     0.00000

              0.10921    0.00002    0.00000        0.10921    0.00000    0.00000
              0.00002   -0.12848    0.00000        0.00000   -0.12848    0.00000
              0.00000    0.00000    0.01927        0.00000    0.00000    0.01927

         MAIN DIRECTIONS OF THE EFG   1.0000 -0.0001  0.0000
                                      0.0001  1.0000  0.0000
                                      0.0000  0.0000  1.0000
:ANG002:  ANGLE WITH OLD X-AXIS =         0.0

:ETA002:                         ASYMM. ETA =     0.70004


:VCOUL003 ATOMNUMBER=  3 Co1     VCOUL-ZERO =  0.54509E+00
:EFG003:                        EFG         =    -0.12848   *10**21  V / m**2
                               V20  TOT/SRF=     0.01670     0.03226
                               V22  TOT/SRF=    -0.05942    -0.12355
                               V22M TOT/SRF=    -0.10291    -0.21405
                               V21  TOT/SRF=     0.00000     0.00000
                               V21M TOT/SRF=     0.00000     0.00000

             -0.06906   -0.10291    0.00000       -0.12848    0.00000    0.00000
             -0.10291    0.04977    0.00000        0.00000    0.10919    0.00000
              0.00000    0.00000    0.01929        0.00000    0.00000    0.01929

         MAIN DIRECTIONS OF THE EFG   1.0000 -0.5773  0.0000
                                      0.5773  1.0000  0.0000
                                     -0.0000 -0.0000  1.0000
:ANG003:  ANGLE WITH OLD X-AXIS =        30.0

:ETA003:                         ASYMM. ETA =     0.69976


:VCOUL004 ATOMNUMBER=  4 Co2     VCOUL-ZERO =  0.53009E+00
:EFG004:                        EFG         =     0.06237   *10**21  V / m**2
                               V20  TOT/SRF=     0.05402     0.14367
                               V22  TOT/SRF=    -0.00001    -0.00000
                               V22M TOT/SRF=    -0.00001    -0.00000
                               V21  TOT/SRF=     0.00000     0.00000
                               V21M TOT/SRF=     0.00000     0.00000

             -0.03120   -0.00001    0.00000       -0.03120    0.00000    0.00000
             -0.00001   -0.03117    0.00000        0.00000   -0.03117    0.00000
              0.00000    0.00000    0.06237        0.00000    0.00000    0.06237

         MAIN DIRECTIONS OF THE EFG   1.0000 -0.3129  0.0000
                                      0.3129  1.0000  0.0000
                                     -0.0000 -0.0000  1.0000
:ANG004:  ANGLE WITH OLD X-AXIS =        17.4

:ETA004:                         ASYMM. ETA =     0.00046


:VCOUL005 ATOMNUMBER=  5 Tb1     VCOUL-ZERO =  0.46504E+00
:EFG005:                        EFG         =    -0.03510   *10**21  V / m**2
                               V20  TOT/SRF=    -0.03040    -0.10069
                               V22  TOT/SRF=     0.00010    -0.00000
                               V22M TOT/SRF=     0.00000    -0.00000
                               V21  TOT/SRF=     0.00000     0.00000
                               V21M TOT/SRF=     0.00000     0.00000

              0.01765    0.00000    0.00000        0.01765    0.00000    0.00000
              0.00000    0.01745    0.00000        0.00000    0.01745    0.00000
              0.00000    0.00000   -0.03510        0.00000    0.00000   -0.03510

         MAIN DIRECTIONS OF THE EFG   1.0000 -0.0033  0.0000
                                      0.0033  1.0000  0.0000
                                      0.0000  0.0000  1.0000
:ANG005:  ANGLE WITH OLD X-AXIS =         0.2

:ETA005:                         ASYMM. ETA =     0.00565


     HELLMANN-FEYNMAN-FORCE IN mRy/a.u. = |F|  Fx       Fy             Fz
:FHF001:   1.ATOM      0.000000000000      0.000000000000      0.000000000000      0.000000000000

     HELLMANN-FEYNMAN-FORCE IN mRy/a.u. = |F|  Fx       Fy             Fz
:FHF002:   2.ATOM      0.000000000000      0.000000000000      0.000000000000      0.000000000000

     HELLMANN-FEYNMAN-FORCE IN mRy/a.u. = |F|  Fx       Fy             Fz
:FHF003:   3.ATOM      0.000000000000      0.000000000000      0.000000000000      0.000000000000

     HELLMANN-FEYNMAN-FORCE IN mRy/a.u. = |F|  Fx       Fy             Fz
:FHF004:   4.ATOM      0.038810608021      0.038628942736      0.003750743662      0.000000000000

     HELLMANN-FEYNMAN-FORCE IN mRy/a.u. = |F|  Fx       Fy             Fz
:FHF005:   5.ATOM      0.000000000000      0.000000000000      0.000000000000      0.000000000000

:FIT001: LUSE= 13 SIGMA OF V-XC FIT FOR ATOM  1  0.7044815E-03
:FIT001: LUSE= 13 SIGMA OF V-XC FIT FOR ATOM  1  0.9953488E-03
:FIT002: LUSE= 13 SIGMA OF V-XC FIT FOR ATOM  2  0.5559238E-03
:FIT002: LUSE= 13 SIGMA OF V-XC FIT FOR ATOM  2  0.1020358E-02
:FIT003: LUSE= 13 SIGMA OF V-XC FIT FOR ATOM  3  0.7044809E-03
:FIT003: LUSE= 13 SIGMA OF V-XC FIT FOR ATOM  3  0.9953500E-03
:FIT004: LUSE= 13 SIGMA OF V-XC FIT FOR ATOM  4  0.7003496E-03
:FIT004: LUSE= 13 SIGMA OF V-XC FIT FOR ATOM  4  0.8047526E-03
:FIT005: LUSE= 13 SIGMA OF V-XC FIT FOR ATOM  5  0.3588127E-03
:FIT005: LUSE= 13 SIGMA OF V-XC FIT FOR ATOM  5  0.5524756E-03
:DEN  : DENSITY INTEGRAL  =        -14938.54886762   (Ry)
       ELS_POTENTIAL_AT Z=0 and Z=0.5:  -0.83338  -0.40670
       ELS_POTENTIAL_AT Y=0 and Y=0.5:  -0.47721  -0.33469
:VZERO:v0,v0c,v0x  -1.73958  -0.83338  -0.90620 v5,v5c,v5x  -1.23702  -0.40670  -0.83032
:VZERY:v0,v0c,v0x  -1.32380  -0.47721  -0.84659 v5,v5c,v5x  -1.21810  -0.33469  -0.88341
:VZERX:v0,v0c,v0x  -1.32380  -0.47721  -0.84659 v5,v5c,v5x  -1.21807  -0.33466  -0.88341
:LMAX-WF:   10   Non-Spherical LMAX:   6

          ATOMIC SPHERE DEPENDENT PARAMETERS FOR ATOM  Co1       
:e__0001: OVERALL ENERGY PARAMETER IS    0.3143
          OVERALL BASIS SET ON ATOM IS LAPW
:E1_0001: E( 1)=    0.3143
             APW+lo
:E1_0001: E( 1)=   -3.7903   E(BOTTOM)=   -3.825   E(TOP)=   -3.755  1  2   181
             LOCAL ORBITAL
:E2_0001: E( 2)=    0.3778   E(BOTTOM)=    0.140   E(TOP)=    0.616  0  1   124
             APW+lo
:E0_0001: E( 0)=    0.3143
             APW+lo

          ATOMIC SPHERE DEPENDENT PARAMETERS FOR ATOM  Co1       
:e__0002: OVERALL ENERGY PARAMETER IS    0.3143
          OVERALL BASIS SET ON ATOM IS LAPW
:E1_0002: E( 1)=    0.3143
             APW+lo
:E1_0002: E( 1)=   -3.7903   E(BOTTOM)=   -3.825   E(TOP)=   -3.755  1  2   178
             LOCAL ORBITAL
:E2_0002: E( 2)=    0.3778   E(BOTTOM)=    0.140   E(TOP)=    0.616  0  1   126
             APW+lo
:E0_0002: E( 0)=    0.3143
             APW+lo

          ATOMIC SPHERE DEPENDENT PARAMETERS FOR ATOM  Co1       
:e__0003: OVERALL ENERGY PARAMETER IS    0.3143
          OVERALL BASIS SET ON ATOM IS LAPW
:E1_0003: E( 1)=    0.3143
             APW+lo
:E1_0003: E( 1)=   -3.7903   E(BOTTOM)=   -3.825   E(TOP)=   -3.755  1  2   179
             LOCAL ORBITAL
:E2_0003: E( 2)=    0.3778   E(BOTTOM)=    0.140   E(TOP)=    0.616  0  1   124
             APW+lo
:E0_0003: E( 0)=    0.3143
             APW+lo

          ATOMIC SPHERE DEPENDENT PARAMETERS FOR ATOM  Co2       
:e__0004: OVERALL ENERGY PARAMETER IS    0.3143
          OVERALL BASIS SET ON ATOM IS LAPW
:E1_0004: E( 1)=    0.3143
             APW+lo
:E1_0004: E( 1)=   -3.8026   E(BOTTOM)=   -3.838   E(TOP)=   -3.767  1  2   176
             LOCAL ORBITAL
:E2_0004: E( 2)=    0.3651   E(BOTTOM)=    0.127   E(TOP)=    0.603  0  1   124
             APW+lo
:E0_0004: E( 0)=    0.3143
             APW+lo

          ATOMIC SPHERE DEPENDENT PARAMETERS FOR ATOM  Tb1       
:e__0005: OVERALL ENERGY PARAMETER IS    0.3143
          OVERALL BASIS SET ON ATOM IS LAPW
:E0_0005: E( 0)=    0.3143
             APW+lo
:E0_0005: E( 0)=   -2.6567   E(BOTTOM)=   -2.852   E(TOP)=   -2.461  4  5   186
             LOCAL ORBITAL
:E1_0005: E( 1)=    0.7143
             APW+lo
:E1_0005: E( 1)=   -0.9398   E(BOTTOM)=   -1.373   E(TOP)=   -0.507  3  4   179
             LOCAL ORBITAL
:E3_0005: E( 3)=    0.4450   E(BOTTOM)=    0.382   E(TOP)=    0.508  0  1   114
             APW+lo
:E2_0005: E( 2)=    0.4037   E(BOTTOM)=    0.404   E(TOP)= -520.000  2 -1    88
             APW+lo

       K=  0.031250  0.031250  0.029412            1
:RKM  : MATRIX SIZE   653LOs:  80  RKM= 9.00  WEIGHT= 2.00  PGR:    
       EIGENVALUES ARE:
:EIG00001:      -3.8047134   -3.7989424   -3.7972594   -3.7945676   -3.7945332
:EIG00006:      -3.7942303   -3.7942113   -3.7843761   -3.7843015   -3.7830788
:EIG00011:      -3.7830417   -3.7791069   -3.7761770   -3.7761182   -3.7728881
:EIG00016:      -2.6216745   -0.9211002   -0.9210159   -0.8952672   -0.0065981
:EIG00021:       0.2035282    0.2831599    0.2862827    0.2866369    0.2896568
:EIG00026:       0.2908508    0.3077160    0.3082618    0.3201523    0.3236343
:EIG00031:       0.3550151    0.3556582    0.3913698    0.3920565    0.4162499
:EIG00036:       0.4281823    0.4284612    0.4455732    0.4531942    0.4550066
:EIG00041:       0.4550688    0.4563891    0.4568968    0.4572350    0.4574330
:EIG00046:       0.4605665    0.4611108    0.4656965    0.4658450    0.5176075

:EIG00051:       0.5204351    0.5291863    0.6190650    0.6773290    0.6795077
:EIG00056:       0.7043841    0.7718125    0.7976871    0.8135800    0.9894630
:EIG00061:       0.9923278    1.1829005    1.2539795    1.2581686    1.3384296
:EIG00066:       1.3677305    1.4101963    1.4173080    1.4560077    1.4831944
:EIG00071:       1.4974426    1.6309170    1.6454065    1.7393019    1.7410743
:EIG00076:       1.8936753    1.9050060    2.1037270    2.1104508    2.2545991
:EIG00081:       2.3057747    2.3205479    2.3255802    2.3673181    2.3806029
:EIG00086:       2.4034983    2.4435568    2.4678374    2.5128032    2.5134924
:EIG00091:       2.6748109    2.7779166    2.7865931    2.8477181    2.9128378
:EIG00096:       2.9510743    2.9663888    2.9703082    2.9866042    3.0089610

:EIG00101:       3.0310113    3.0504741    3.1410044    3.1543682    3.2222664
:EIG00106:       3.2501327    3.2694182    3.2798032    3.3622564    3.3650249
:EIG00111:       3.4320071    3.4922008    3.5088244    3.5714009    3.5767576
:EIG00116:       3.6106565    3.6640903    3.7220657    3.7417098    3.7862193
:EIG00121:       3.7903403    3.8441127    4.0003330    4.0374450    4.0660767
:EIG00126:       4.0674253    4.1170690    4.1639731    4.2121489    4.2619658
:EIG00131:       4.3339912    4.3399197    4.3943866    4.4191886    4.4270456
:EIG00136:       4.4487901    4.4573735    4.4689225    4.5874975    4.5930444
:EIG00141:       4.6036063    4.6154699    4.6604718    4.6851740    4.7303542
:EIG00146:       4.7382914    4.7838377    4.8027413    4.8164880    4.8263641

:EIG00151:       4.8402486    4.8937989    4.9045989    4.9550680    4.9678181
:EIG00156:       5.0101707    5.0401671    5.0514729    5.1059091    5.1663249
:EIG00161:       5.1743039    5.2010385    5.2325708    5.3008291    5.3468929
:EIG00166:       5.3573262    5.4019606    5.4665311    5.4716710    5.4779735
       ********************************************************

:KPT   :      NUMBER OF K-POINTS:    2176
:LMAX-WF:   10   Non-Spherical LMAX:   6

          ATOMIC SPHERE DEPENDENT PARAMETERS FOR ATOM  Co1       
:e__0001: OVERALL ENERGY PARAMETER IS    0.3143
          OVERALL BASIS SET ON ATOM IS LAPW
:E1_0001: E( 1)=    0.3143
             APW+lo
:E1_0001: E( 1)=   -3.5558   E(BOTTOM)=   -3.594   E(TOP)=   -3.518  1  2   201
             LOCAL ORBITAL
:E2_0001: E( 2)=    0.5864   E(BOTTOM)=    0.322   E(TOP)=    0.851  0  1   126
             APW+lo
:E0_0001: E( 0)=    0.3143
             APW+lo

          ATOMIC SPHERE DEPENDENT PARAMETERS FOR ATOM  Co1       
:e__0002: OVERALL ENERGY PARAMETER IS    0.3143
          OVERALL BASIS SET ON ATOM IS LAPW
:E1_0002: E( 1)=    0.3143
             APW+lo
:E1_0002: E( 1)=   -3.5558   E(BOTTOM)=   -3.594   E(TOP)=   -3.518  1  2   202
             LOCAL ORBITAL
:E2_0002: E( 2)=    0.5864   E(BOTTOM)=    0.322   E(TOP)=    0.851  0  1   126
             APW+lo
:E0_0002: E( 0)=    0.3143
             APW+lo

          ATOMIC SPHERE DEPENDENT PARAMETERS FOR ATOM  Co1       
:e__0003: OVERALL ENERGY PARAMETER IS    0.3143
          OVERALL BASIS SET ON ATOM IS LAPW
:E1_0003: E( 1)=    0.3143
             APW+lo
:E1_0003: E( 1)=   -3.5558   E(BOTTOM)=   -3.594   E(TOP)=   -3.518  1  2   200
             LOCAL ORBITAL
:E2_0003: E( 2)=    0.5864   E(BOTTOM)=    0.322   E(TOP)=    0.851  0  1   124
             APW+lo
:E0_0003: E( 0)=    0.3143
             APW+lo

          ATOMIC SPHERE DEPENDENT PARAMETERS FOR ATOM  Co2       
:e__0004: OVERALL ENERGY PARAMETER IS    0.3143
          OVERALL BASIS SET ON ATOM IS LAPW
:E1_0004: E( 1)=    0.3143
             APW+lo
:E1_0004: E( 1)=   -3.5681   E(BOTTOM)=   -3.606   E(TOP)=   -3.530  1  2   191
             LOCAL ORBITAL
:E2_0004: E( 2)=    0.5739   E(BOTTOM)=    0.309   E(TOP)=    0.839  0  1   129
             APW+lo
:E0_0004: E( 0)=    0.3143
             APW+lo

          ATOMIC SPHERE DEPENDENT PARAMETERS FOR ATOM  Tb1       
:e__0005: OVERALL ENERGY PARAMETER IS    0.3143
          OVERALL BASIS SET ON ATOM IS LAPW
:E0_0005: E( 0)=    0.3143
             APW+lo
:E0_0005: E( 0)=   -2.4476   E(BOTTOM)=   -2.660   E(TOP)=   -2.235  4  5   204
             LOCAL ORBITAL
:E1_0005: E( 1)=    0.7143
             APW+lo
:E1_0005: E( 1)=   -0.7712   E(BOTTOM)=   -1.230   E(TOP)=   -0.312  3  4   190
             LOCAL ORBITAL
:E3_0005: E( 3)=    0.7862   E(BOTTOM)=    0.704   E(TOP)=    0.868  0  1   145
             APW+lo
:E2_0005: E( 2)=    0.5059   E(BOTTOM)=    0.506   E(TOP)= -520.000  2 -1    95
             APW+lo

       K=  0.031250  0.031250  0.029412            1
:RKM  : MATRIX SIZE   653LOs:  80  RKM= 9.00  WEIGHT= 2.00  PGR:    
       EIGENVALUES ARE:
:EIG00001:      -3.5707821   -3.5648455   -3.5625906   -3.5594986   -3.5594645
:EIG00006:      -3.5592100   -3.5591865   -3.5491855   -3.5491066   -3.5479205
:EIG00011:      -3.5478748   -3.5432414   -3.5405572   -3.5404893   -3.5371294
:EIG00016:      -2.4107554   -0.7609063   -0.7607868   -0.7315667    0.0582913
:EIG00021:       0.3530467    0.4083317    0.4167510    0.4497470    0.4612892
:EIG00026:       0.4614593    0.4660921    0.4696839    0.4927927    0.4931797
:EIG00031:       0.5428563    0.5435052    0.5783434    0.5796476    0.6242990
:EIG00036:       0.6349018    0.6352858    0.6578050    0.6578606    0.6699795
:EIG00041:       0.6794097    0.6796311    0.7054484    0.7318886    0.7459936
:EIG00046:       0.7535821    0.7555708    0.7829742    0.7861995    0.7958585

:EIG00051:       0.8027693    0.8028851    0.8203155    0.8273189    0.8362295
:EIG00056:       0.8640166    0.8806068    0.8959698    0.9300194    1.0986255
:EIG00061:       1.1013533    1.3037284    1.3643150    1.3696273    1.4392190
:EIG00066:       1.4617013    1.5043447    1.5062718    1.5330269    1.5862015
:EIG00071:       1.5921564    1.7125480    1.7319264    1.8006729    1.8086765
:EIG00076:       1.9696094    1.9805700    2.1943159    2.1999997    2.3244009
:EIG00081:       2.3510406    2.3652902    2.3803756    2.4282909    2.4461883
:EIG00086:       2.4681693    2.5099116    2.5357741    2.5814988    2.5821245
:EIG00091:       2.7187324    2.8333740    2.8440913    2.8880577    2.9808898
:EIG00096:       3.0155235    3.0484792    3.0578640    3.0668751    3.0709604

:EIG00101:       3.1027365    3.1121593    3.1845699    3.1985595    3.2877426
:EIG00106:       3.3117254    3.3148318    3.3330580    3.4288091    3.4316716
:EIG00111:       3.4935581    3.5503807    3.5764166    3.6312058    3.6342456
:EIG00116:       3.6668482    3.7244808    3.7806538    3.8065725    3.8524434
:EIG00121:       3.8533546    3.9168295    4.0586480    4.1080132    4.1342114
:EIG00126:       4.1363011    4.1689942    4.2212319    4.2786679    4.3425856
:EIG00131:       4.3945064    4.4010451    4.4524850    4.4792418    4.4843355
:EIG00136:       4.5124203    4.5314975    4.5352480    4.6503252    4.6552155
:EIG00141:       4.6630249    4.6738853    4.7195422    4.7457049    4.7777565
:EIG00146:       4.7853973    4.8320960    4.8552727    4.8629498    4.8776830

:EIG00151:       4.8890715    4.9474226    4.9619503    5.0152586    5.0277642
:EIG00156:       5.0732913    5.0913274    5.1036836    5.1748668    5.2268320
:EIG00161:       5.2364812    5.2674012    5.2939986    5.3635312    5.4205700
:EIG00166:       5.4330651    5.4617092
       ********************************************************

:KPT   :      NUMBER OF K-POINTS:    2176
  Potential not averaged when calculating dV/dr
  30.0 -30.0 angle (M,z), angle (M,x) deg

        SPIN-ORBIT EIGENVALUES:
     K=  0.031250  0.031250  0.029412            1
      MATRIX SIZE=  337   WEIGHT= 2.00
     EIGENVALUES ARE:
          -3.8533059   -3.8529466   -3.8449888   -3.8430872   -3.8363791
          -3.8189461   -3.8159468   -3.8039709   -3.8013501   -3.7980654
          -3.7504596   -3.7490934   -3.7409202   -3.7390174   -3.7323900
          -3.5855823   -3.5853900   -3.5780706   -3.5756086   -3.5680566
          -3.5527787   -3.5488637   -3.5369735   -3.5339420   -3.5300857
          -3.5159072   -3.5138600   -3.5064601   -3.5037348   -3.4971128
          -2.6216745   -2.4107554   -1.0845534   -1.0263363   -0.8201374
          -0.7380911   -0.6877014   -0.6615229   -0.0065881    0.0583039

           0.2034577    0.2830156    0.2860805    0.2865720    0.2894469
           0.2908562    0.3067342    0.3089627    0.3200296    0.3235010
           0.3529067    0.3534829    0.3566642    0.3903010    0.3930683
           0.4081979    0.4156084    0.4165378    0.4246085    0.4260457
           0.4306010    0.4390049    0.4472511    0.4492623    0.4506715
           0.4546576    0.4559455    0.4577684    0.4601449    0.4615953
           0.4632269    0.4660963    0.4663165    0.4667314    0.4698969
           0.4709333    0.4816248    0.4915395    0.4942789    0.5176497

           0.5210866    0.5294190    0.5412323    0.5450651    0.5774271
           0.5806533    0.6193264    0.6241021    0.6332155    0.6374362
           0.6540507    0.6617472    0.6698782    0.6770285    0.6790914
           0.6796258    0.6807917    0.7043270    0.7054706    0.7300943
           0.7459049    0.7536276    0.7554830    0.7717142    0.7773562
           0.7876956    0.7908183    0.7958702    0.7989094    0.8147970
           0.8181028    0.8280425    0.8304174    0.8366208    0.8661452
           0.8808558    0.8974879    0.9299198    0.9867958    0.9948905

           1.0959639    1.1033591    1.1829610    1.2494625    1.2626467
           1.3037497    1.3384561    1.3607650    1.3678640    1.3732824
           1.4101235    1.4165916    1.4393295    1.4554158    1.4617805
           1.4829906    1.4974128    1.5040901    1.5057079    1.5339710
           1.5859610    1.5924821    1.6310440    1.6456335    1.7123034
           1.7312924    1.7410307    1.7421706    1.8007884    1.8069994
           1.8935032
       ********************************************************
:GAP (global)   :    0.0    Ry =     0.0   eV (metal)
:GAP (this spin):    0.0    Ry =     0.0   eV (metal)
         Bandranges (emin - emax) and occupancy:
:BAN00087:  87    0.539362    0.623830  1.00000000
:BAN00088:  88    0.540871    0.632292  1.00000000
:BAN00089:  89    0.565323    0.638352  1.00000000
:BAN00090:  90    0.575650    0.646402  1.00000000
:BAN00091:  91    0.578037    0.654367  0.99992931
:BAN00092:  92    0.585490    0.661962  0.97225795
:BAN00093:  93    0.614519    0.670033  0.93059531
:BAN00094:  94    0.619450    0.677628  0.78745294
:BAN00095:  95    0.626593    0.679091  0.27822396
:BAN00096:  96    0.644475    0.680268  0.03128627
:BAN00097:  97    0.651742    0.686051  0.00025408
:BAN00098:  98    0.664420    0.704327  0.00000000
:BAN00099:  99    0.672264    0.726189  0.00000000
:BAN00100: 100    0.678450    0.733822  0.00000000
:BAN00101: 101    0.685957    0.747383  0.00000000
:BAN00102: 102    0.696746    0.771569  0.00000000
        Energy to separate low and high energystates:   -0.05796


:NOE  : NUMBER OF ELECTRONS          =   94.000

:FER  : F E R M I - ENERGY(TETRAH.M.)=   0.6542915291
:GMA  : POTENTIAL AND CHARGE CUT-OFF  16.00 Ry**.5
 
:POS001: ATOM   -1 X,Y,Z = 0.50000 0.00000 0.50000  MULT= 1  ZZ= 27.000  Co1
 
       LMMAX 16
       LM=   0 0  2 0  2 2 -2 2  4 0  4 2 -4 2  4 4 -4 4  6 0  6 2 -6 2  6 4 -6 4  6 6 -6 6
 
:CHA001: TOTAL VALENCE CHARGE INSIDE SPHERE   1 =   7.9795    (RMT=  2.3000 )
:PCS001: PARTIAL CHARGES SPHERE =  1 S,P,D,F,PX,PY,PZ,D-Z2,D-X2Y2,D-XY,D-XZ,D-YZ
:QTL001: 0.2407 3.2114 4.5096 0.0131 1.0558 1.0807 1.0753 0.8957 0.8981 0.9068 0.9088 0.9005
        Q-s-low E-s-low   Q-p-low E-p-low   Q-d-low E-d-low   Q-f-low E-f-low
:EPL001:  0.0000 10.0000    2.9952 -3.7825    0.0000 10.0000    0.0000 10.0000
        Q-s-hi  E-s-hi    Q-p-hi  E-p-hi    Q-d-hi  E-d-hi    Q-f-hi  E-f-hi
:EPH001:  0.2401  0.2530    0.2159  0.3979    4.5088  0.3990    0.0130  0.3927
 
                      QXX         QXY         QYY         QZZ       UP TO R
:VZZ001:             1.67216    -2.50347    -1.22102    -0.45110       2.300
 
:POS002: ATOM   -2 X,Y,Z = 0.00000 0.50000 0.50000  MULT= 1  ZZ= 27.000  Co1
 
       LMMAX 16
       LM=   0 0  2 0  2 2 -2 2  4 0  4 2 -4 2  4 4 -4 4  6 0  6 2 -6 2  6 4 -6 4  6 6 -6 6
 
:CHA002: TOTAL VALENCE CHARGE INSIDE SPHERE   2 =   7.9796    (RMT=  2.3000 )
:PCS002: PARTIAL CHARGES SPHERE =  2 S,P,D,F,PX,PY,PZ,D-Z2,D-X2Y2,D-XY,D-XZ,D-YZ
:QTL002: 0.2407 3.2115 4.5098 0.0133 1.0929 1.0437 1.0750 0.8953 0.9109 0.8944 0.8963 0.9127
        Q-s-low E-s-low   Q-p-low E-p-low   Q-d-low E-d-low   Q-f-low E-f-low
:EPL002:  0.0000 10.0000    2.9952 -3.7825    0.0000 10.0000    0.0000 10.0000
        Q-s-hi  E-s-hi    Q-p-hi  E-p-hi    Q-d-hi  E-d-hi    Q-f-hi  E-f-hi
:EPH002:  0.2399  0.2530    0.2162  0.3979    4.5090  0.3990    0.0132  0.3932
 
                      QXX         QXY         QYY         QZZ       UP TO R
:VZZ002:            -2.66281     0.00029     3.11535    -0.45259       2.300
 
:POS003: ATOM   -3 X,Y,Z = 0.50000 0.50000 0.50000  MULT= 1  ZZ= 27.000  Co1
 
       LMMAX 16
       LM=   0 0  2 0  2 2 -2 2  4 0  4 2 -4 2  4 4 -4 4  6 0  6 2 -6 2  6 4 -6 4  6 6 -6 6
 
:CHA003: TOTAL VALENCE CHARGE INSIDE SPHERE   3 =   7.9798    (RMT=  2.3000 )
:PCS003: PARTIAL CHARGES SPHERE =  3 S,P,D,F,PX,PY,PZ,D-Z2,D-X2Y2,D-XY,D-XZ,D-YZ
:QTL003: 0.2405 3.2116 4.5098 0.0131 1.0560 1.0805 1.0748 0.8951 0.8982 0.9068 0.9085 0.9007
        Q-s-low E-s-low   Q-p-low E-p-low   Q-d-low E-d-low   Q-f-low E-f-low
:EPL003:  0.0000 10.0000    2.9952 -3.7825    0.0000 10.0000    0.0000 10.0000
        Q-s-hi  E-s-hi    Q-p-hi  E-p-hi    Q-d-hi  E-d-hi    Q-f-hi  E-f-hi
:EPH003:  0.2399  0.2529    0.2162  0.3980    4.5091  0.3990    0.0130  0.3928
 
                      QXX         QXY         QYY         QZZ       UP TO R
:VZZ003:             1.66374     2.50654    -1.23206    -0.43166       2.300
 
:POS004: ATOM   -4 X,Y,Z = 0.33333 0.66667 0.00000  MULT= 2  ZZ= 27.000  Co2
 
       LMMAX 28
       LM=   0 0  1 1 -1 1  2 0  2 2 -2 2  3 1 -3 1  3 3 -3 3  4 0  4 2 -4 2  4 4 -4 4  5 1 -5 1
         5 3 -5 3  5 5 -5 5  6 0  6 2 -6 2  6 4 -6 4  6 6 -6 6
 
:CHA004: TOTAL VALENCE CHARGE INSIDE SPHERE   4 =   7.9957    (RMT=  2.3000 )
:PCS004: PARTIAL CHARGES SPHERE =  4 S,P,D,F,PX,PY,PZ,D-Z2,D-X2Y2,D-XY,D-XZ,D-YZ
:QTL004: 0.2509 3.2121 4.5163 0.0128 1.0609 1.0608 1.0905 0.9107 0.9095 0.9094 0.8932 0.8930
        Q-s-low E-s-low   Q-p-low E-p-low   Q-d-low E-d-low   Q-f-low E-f-low
:EPL004:  0.0024 -1.0074    2.9958 -3.7935    0.0024 -1.2375    0.0000 10.0000
        Q-s-hi  E-s-hi    Q-p-hi  E-p-hi    Q-d-hi  E-d-hi    Q-f-hi  E-f-hi
:EPH004:  0.2490  0.2725    0.2156  0.4081    4.5144  0.3866    0.0126  0.4024
 
                      QXX         QXY         QYY         QZZ       UP TO R
:VZZ004:             1.09300    -0.00620     1.09908    -2.19208       2.300
 
:POS005: ATOM   -5 X,Y,Z = 0.00000 0.00000 0.00000  MULT= 1  ZZ= 65.000  Tb1
 
       LMMAX 16
       LM=   0 0  2 0  2 2 -2 2  4 0  4 2 -4 2  4 4 -4 4  6 0  6 2 -6 2  6 4 -6 4  6 6 -6 6
 
:CHA005: TOTAL VALENCE CHARGE INSIDE SPHERE   5 =  11.0188    (RMT=  2.5000 )
:PCS005: PARTIAL CHARGES SPHERE =  5 S,P,D,F,PX,PY,PZ,D-Z2,D-X2Y2,D-XY,D-XZ,D-YZ
:QTL005: 1.0473 2.8711 0.2296 6.8688 0.9591 0.9592 0.9522 0.0310 0.0631 0.0632 0.0359 0.0363
        Q-s-low E-s-low   Q-p-low E-p-low   Q-d-low E-d-low   Q-f-low E-f-low
:EPL005:  0.9856 -2.6214    2.7799 -0.9221    0.0000 10.0000    0.0000 10.0000
        Q-s-hi  E-s-hi    Q-p-hi  E-p-hi    Q-d-hi  E-d-hi    Q-f-hi  E-f-hi
:EPH005:  0.0623  0.3411    0.0915  0.3761    0.2296  0.4322    6.8687  0.4553
 
                      QXX         QXY         QYY         QZZ       UP TO R
:VZZ005:            -3.00022    -0.06859    -3.15802     6.15824       2.500
 
:CHA  : TOTAL VALENCE CHARGE INSIDE UNIT CELL =      54.489939
 
:SUM  : SUM OF EIGENVALUES =         -48.081564173
 
:GAP (global)   :    0.0    Ry =     0.0   eV (metal)
:GAP (this spin):    0.0    Ry =     0.0   eV (metal)
         Bandranges (emin - emax) and occupancy:
:BAN00087:  87    0.539362    0.623830  1.00000000
:BAN00088:  88    0.540871    0.632292  1.00000000
:BAN00089:  89    0.565323    0.638352  1.00000000
:BAN00090:  90    0.575650    0.646402  1.00000000
:BAN00091:  91    0.578037    0.654367  0.99992931
:BAN00092:  92    0.585490    0.661962  0.97225795
:BAN00093:  93    0.614519    0.670033  0.93059531
:BAN00094:  94    0.619450    0.677628  0.78745294
:BAN00095:  95    0.626593    0.679091  0.27822396
:BAN00096:  96    0.644475    0.680268  0.03128627
:BAN00097:  97    0.651742    0.686051  0.00025408
:BAN00098:  98    0.664420    0.704327  0.00000000
:BAN00099:  99    0.672264    0.726189  0.00000000
:BAN00100: 100    0.678450    0.733822  0.00000000
:BAN00101: 101    0.685957    0.747383  0.00000000
:BAN00102: 102    0.696746    0.771569  0.00000000
        Energy to separate low and high energystates:   -0.05796


:NOE  : NUMBER OF ELECTRONS          =   94.000

:FER  : F E R M I - ENERGY(TETRAH.M.)=   0.6542915291
:GMA  : POTENTIAL AND CHARGE CUT-OFF  16.00 Ry**.5
 
:POS001: ATOM   -1 X,Y,Z = 0.50000 0.00000 0.50000  MULT= 1  ZZ= 27.000  Co1
 
       LMMAX 16
       LM=   0 0  2 0  2 2 -2 2  4 0  4 2 -4 2  4 4 -4 4  6 0  6 2 -6 2  6 4 -6 4  6 6 -6 6
 
:CHA001: TOTAL VALENCE CHARGE INSIDE SPHERE   1 =   6.1770    (RMT=  2.3000 )
:PCS001: PARTIAL CHARGES SPHERE =  1 S,P,D,F,PX,PY,PZ,D-Z2,D-X2Y2,D-XY,D-XZ,D-YZ
:QTL001: 0.2404 3.2249 2.6947 0.0130 1.0613 1.0844 1.0794 0.5820 0.5504 0.5132 0.5063 0.5422
        Q-s-low E-s-low   Q-p-low E-p-low   Q-d-low E-d-low   Q-f-low E-f-low
:EPL001:  0.0000 10.0000    2.9952 -3.5473    0.0000 10.0000    0.0000 10.0000
        Q-s-hi  E-s-hi    Q-p-hi  E-p-hi    Q-d-hi  E-d-hi    Q-f-hi  E-f-hi
:EPH001:  0.2394  0.3153    0.2301  0.4738    2.6938  0.5341    0.0128  0.5327
 
                      QXX         QXY         QYY         QZZ       UP TO R
:VZZ001:             2.04914    -1.86232    -0.09631    -1.95284       2.300
 
:POS002: ATOM   -2 X,Y,Z = 0.00000 0.50000 0.50000  MULT= 1  ZZ= 27.000  Co1
 
       LMMAX 16
       LM=   0 0  2 0  2 2 -2 2  4 0  4 2 -4 2  4 4 -4 4  6 0  6 2 -6 2  6 4 -6 4  6 6 -6 6
 
:CHA002: TOTAL VALENCE CHARGE INSIDE SPHERE   2 =   6.1766    (RMT=  2.3000 )
:PCS002: PARTIAL CHARGES SPHERE =  2 S,P,D,F,PX,PY,PZ,D-Z2,D-X2Y2,D-XY,D-XZ,D-YZ
:QTL002: 0.2401 3.2253 2.6947 0.0130 1.0961 1.0496 1.0794 0.5820 0.4952 0.5687 0.5600 0.4884
        Q-s-low E-s-low   Q-p-low E-p-low   Q-d-low E-d-low   Q-f-low E-f-low
:EPL002:  0.0000 10.0000    2.9952 -3.5473    0.0000 10.0000    0.0000 10.0000
        Q-s-hi  E-s-hi    Q-p-hi  E-p-hi    Q-d-hi  E-d-hi    Q-f-hi  E-f-hi
:EPH002:  0.2394  0.3153    0.2304  0.4738    2.6940  0.5341    0.0128  0.5328
 
                      QXX         QXY         QYY         QZZ       UP TO R
:VZZ002:            -1.18299     0.00661     3.12975    -1.94673       2.300
 
:POS003: ATOM   -3 X,Y,Z = 0.50000 0.50000 0.50000  MULT= 1  ZZ= 27.000  Co1
 
       LMMAX 16
       LM=   0 0  2 0  2 2 -2 2  4 0  4 2 -4 2  4 4 -4 4  6 0  6 2 -6 2  6 4 -6 4  6 6 -6 6
 
:CHA003: TOTAL VALENCE CHARGE INSIDE SPHERE   3 =   6.1769    (RMT=  2.3000 )
:PCS003: PARTIAL CHARGES SPHERE =  3 S,P,D,F,PX,PY,PZ,D-Z2,D-X2Y2,D-XY,D-XZ,D-YZ
:QTL003: 0.2403 3.2253 2.6946 0.0130 1.0612 1.0846 1.0793 0.5822 0.5501 0.5135 0.5067 0.5423
        Q-s-low E-s-low   Q-p-low E-p-low   Q-d-low E-d-low   Q-f-low E-f-low
:EPL003:  0.0000 10.0000    2.9952 -3.5473    0.0000 10.0000    0.0000 10.0000
        Q-s-hi  E-s-hi    Q-p-hi  E-p-hi    Q-d-hi  E-d-hi    Q-f-hi  E-f-hi
:EPH003:  0.2395  0.3154    0.2303  0.4738    2.6937  0.5341    0.0128  0.5327
 
                      QXX         QXY         QYY         QZZ       UP TO R
:VZZ003:             2.04794     1.86535    -0.08489    -1.96302       2.300
 
:POS004: ATOM   -4 X,Y,Z = 0.33333 0.66667 0.00000  MULT= 2  ZZ= 27.000  Co2
 
       LMMAX 28
       LM=   0 0  1 1 -1 1  2 0  2 2 -2 2  3 1 -3 1  3 3 -3 3  4 0  4 2 -4 2  4 4 -4 4  5 1 -5 1
         5 3 -5 3  5 5 -5 5  6 0  6 2 -6 2  6 4 -6 4  6 6 -6 6
 
:CHA004: TOTAL VALENCE CHARGE INSIDE SPHERE   4 =   6.4278    (RMT=  2.3000 )
:PCS004: PARTIAL CHARGES SPHERE =  4 S,P,D,F,PX,PY,PZ,D-Z2,D-X2Y2,D-XY,D-XZ,D-YZ
:QTL004: 0.2334 3.2200 2.9589 0.0128 1.0606 1.0606 1.0985 0.5556 0.6184 0.6186 0.5834 0.5833
        Q-s-low E-s-low   Q-p-low E-p-low   Q-d-low E-d-low   Q-f-low E-f-low
:EPL004:  0.0026 -0.8553    2.9952 -3.5579    0.0032 -1.1095    0.0000 10.0000
        Q-s-hi  E-s-hi    Q-p-hi  E-p-hi    Q-d-hi  E-d-hi    Q-f-hi  E-f-hi
:EPH004:  0.2311  0.3124    0.2234  0.4755    2.9567  0.5340    0.0124  0.5455
 
                      QXX         QXY         QYY         QZZ       UP TO R
:VZZ004:             0.00930     0.00153     0.01315    -0.02243       2.300
 
:POS005: ATOM   -5 X,Y,Z = 0.00000 0.00000 0.00000  MULT= 1  ZZ= 65.000  Tb1
 
       LMMAX 16
       LM=   0 0  2 0  2 2 -2 2  4 0  4 2 -4 2  4 4 -4 4  6 0  6 2 -6 2  6 4 -6 4  6 6 -6 6
 
:CHA005: TOTAL VALENCE CHARGE INSIDE SPHERE   5 =   4.2719    (RMT=  2.5000 )
:PCS005: PARTIAL CHARGES SPHERE =  5 S,P,D,F,PX,PY,PZ,D-Z2,D-X2Y2,D-XY,D-XZ,D-YZ
:QTL005: 1.0423 2.8561 0.2560 0.1154 0.9534 0.9536 0.9491 0.0366 0.0628 0.0625 0.0475 0.0474
        Q-s-low E-s-low   Q-p-low E-p-low   Q-d-low E-d-low   Q-f-low E-f-low
:EPL005:  0.9824 -2.4104    2.7429 -0.7617    0.0000 10.0000    0.0000 10.0000
        Q-s-hi  E-s-hi    Q-p-hi  E-p-hi    Q-d-hi  E-d-hi    Q-f-hi  E-f-hi
:EPH005:  0.0594  0.3782    0.1131  0.4635    0.2560  0.5053    0.1152  0.5315
 
                      QXX         QXY         QYY         QZZ       UP TO R
:VZZ005:            -1.76147     0.06348    -1.68431     3.44582       2.500
 
:CHA  : TOTAL VALENCE CHARGE INSIDE UNIT CELL =      39.510065
 
:SUM  : SUM OF EIGENVALUES =         -47.663564204
 

        1.ATOM      Co1                   5 CORE STATES
:1S 001: 1S                -556.760681964 Ry
:2S 001: 2S                 -64.917017962 Ry
:2PP001: 2P*                -56.147209447 Ry
:2P 001: 2P                 -55.059077872 Ry
:3S 001: 3S                  -6.482200906 Ry

        2.ATOM      Co1                   5 CORE STATES
:1S 002: 1S                -556.760686545 Ry
:2S 002: 2S                 -64.917022571 Ry
:2PP002: 2P*                -56.147214049 Ry
[...]
:GMA  : POTENTIAL AND CHARGE CUT-OFF  16.00 Ry**.5
 
:POS001: ATOM   -1 X,Y,Z = 0.50000 0.00000 0.50000  MULT= 1  ZZ= 27.000  Co1
 
       LMMAX 16
       LM=   0 0  2 0  2 2 -2 2  4 0  4 2 -4 2  4 4 -4 4  6 0  6 2 -6 2  6 4 -6 4  6 6 -6 6
 
:CHA001: TOTAL VALENCE CHARGE INSIDE SPHERE   1 =   6.2190    (RMT=  2.3000 )
:PCS001: PARTIAL CHARGES SPHERE =  1 S,P,D,F,PX,PY,PZ,D-Z2,D-X2Y2,D-XY,D-XZ,D-YZ
:QTL001: 0.2317 3.2105 2.7614 0.0118 1.0600 1.0773 1.0731 0.6042 0.5660 0.5370 0.5013 0.5528
        Q-s-low E-s-low   Q-p-low E-p-low   Q-d-low E-d-low   Q-f-low E-f-low
:EPL001:  0.0000 10.0000    2.9952 -3.6018    0.0000 10.0000    0.0000 10.0000
        Q-s-hi  E-s-hi    Q-p-hi  E-p-hi    Q-d-hi  E-d-hi    Q-f-hi  E-f-hi
:EPH001:  0.2308  0.2912    0.2154  0.4454    2.7603  0.4954    0.0115  0.5015
 
                      QXX         QXY         QYY         QZZ       UP TO R
:VZZ001:             1.36589    -1.20071    -0.00948    -1.35640       2.300
 
:POS002: ATOM   -2 X,Y,Z = 0.00000 0.50000 0.50000  MULT= 1  ZZ= 27.000  Co1
 
       LMMAX 16
       LM=   0 0  2 0  2 2 -2 2  4 0  4 2 -4 2  4 4 -4 4  6 0  6 2 -6 2  6 4 -6 4  6 6 -6 6
 
:CHA002: TOTAL VALENCE CHARGE INSIDE SPHERE   2 =   6.2184    (RMT=  2.3000 )
:PCS002: PARTIAL CHARGES SPHERE =  2 S,P,D,F,PX,PY,PZ,D-Z2,D-X2Y2,D-XY,D-XZ,D-YZ
:QTL002: 0.2315 3.2105 2.7610 0.0116 1.0862 1.0516 1.0728 0.6050 0.5246 0.5787 0.5792 0.4735
        Q-s-low E-s-low   Q-p-low E-p-low   Q-d-low E-d-low   Q-f-low E-f-low
:EPL002:  0.0000 10.0000    2.9952 -3.6018    0.0000 10.0000    0.0000 10.0000
        Q-s-hi  E-s-hi    Q-p-hi  E-p-hi    Q-d-hi  E-d-hi    Q-f-hi  E-f-hi
:EPH002:  0.2311  0.2912    0.2157  0.4454    2.7601  0.4954    0.0114  0.5016
 
                      QXX         QXY         QYY         QZZ       UP TO R
:VZZ002:            -0.73589     0.03255     2.05879    -1.32285       2.300
 
:POS003: ATOM   -3 X,Y,Z = 0.50000 0.50000 0.50000  MULT= 1  ZZ= 27.000  Co1
 
       LMMAX 16
       LM=   0 0  2 0  2 2 -2 2  4 0  4 2 -4 2  4 4 -4 4  6 0  6 2 -6 2  6 4 -6 4  6 6 -6 6
 
:CHA003: TOTAL VALENCE CHARGE INSIDE SPHERE   3 =   6.2182    (RMT=  2.3000 )
:PCS003: PARTIAL CHARGES SPHERE =  3 S,P,D,F,PX,PY,PZ,D-Z2,D-X2Y2,D-XY,D-XZ,D-YZ
:QTL003: 0.2317 3.2106 2.7609 0.0117 1.0601 1.0774 1.0728 0.6044 0.5649 0.5386 0.5003 0.5520
        Q-s-low E-s-low   Q-p-low E-p-low   Q-d-low E-d-low   Q-f-low E-f-low
:EPL003:  0.0000 10.0000    2.9952 -3.6018    0.0000 10.0000    0.0000 10.0000
        Q-s-hi  E-s-hi    Q-p-hi  E-p-hi    Q-d-hi  E-d-hi    Q-f-hi  E-f-hi
:EPH003:  0.2308  0.2913    0.2157  0.4454    2.7602  0.4954    0.0115  0.5016
 
                      QXX         QXY         QYY         QZZ       UP TO R
:VZZ003:             1.31244     1.21785    -0.00733    -1.30506       2.300
 
:POS004: ATOM   -4 X,Y,Z = 0.33333 0.66667 0.00000  MULT= 2  ZZ= 27.000  Co2
 
       LMMAX 28
       LM=   0 0  1 1 -1 1  2 0  2 2 -2 2  3 1 -3 1  3 3 -3 3  4 0  4 2 -4 2  4 4 -4 4  5 1 -5 1
         5 3 -5 3  5 5 -5 5  6 0  6 2 -6 2  6 4 -6 4  6 6 -6 6
 
:CHA004: TOTAL VALENCE CHARGE INSIDE SPHERE   4 =   6.2378    (RMT=  2.3000 )
:PCS004: PARTIAL CHARGES SPHERE =  4 S,P,D,F,PX,PY,PZ,D-Z2,D-X2Y2,D-XY,D-XZ,D-YZ
:QTL004: 0.2260 3.2057 2.7921 0.0124 1.0592 1.0596 1.0865 0.5434 0.5799 0.5760 0.5460 0.5464
        Q-s-low E-s-low   Q-p-low E-p-low   Q-d-low E-d-low   Q-f-low E-f-low
:EPL004:  0.0024 -1.0100    2.9952 -3.6004    0.0024 -1.2484    0.0000 10.0000
        Q-s-hi  E-s-hi    Q-p-hi  E-p-hi    Q-d-hi  E-d-hi    Q-f-hi  E-f-hi
:EPH004:  0.2239  0.2928    0.2092  0.4469    2.7900  0.4966    0.0108  0.5118
 
                      QXX         QXY         QYY         QZZ       UP TO R
:VZZ004:             0.13439     0.07134     0.21817    -0.35255       2.300
 
:POS005: ATOM   -5 X,Y,Z = 0.00000 0.00000 0.00000  MULT= 1  ZZ= 65.000  Tb1
 
       LMMAX 16
       LM=   0 0  2 0  2 2 -2 2  4 0  4 2 -4 2  4 4 -4 4  6 0  6 2 -6 2  6 4 -6 4  6 6 -6 6
 
:CHA005: TOTAL VALENCE CHARGE INSIDE SPHERE   5 =   5.4191    (RMT=  2.5000 )
:PCS005: PARTIAL CHARGES SPHERE =  5 S,P,D,F,PX,PY,PZ,D-Z2,D-X2Y2,D-XY,D-XZ,D-YZ
:QTL005: 1.0496 2.8726 0.3455 1.1499 0.9591 0.9598 0.9540 0.0551 0.0804 0.0797 0.0655 0.0655
        Q-s-low E-s-low   Q-p-low E-p-low   Q-d-low E-d-low   Q-f-low E-f-low
:EPL005:  0.9824 -2.5688    2.7642 -0.9117    0.0000 10.0000    0.0000 10.0000
        Q-s-hi  E-s-hi    Q-p-hi  E-p-hi    Q-d-hi  E-d-hi    Q-f-hi  E-f-hi
:EPH005:  0.0661  0.3318    0.1080  0.4315    0.3454  0.4669    1.1498  0.5786
 
                      QXX         QXY         QYY         QZZ       UP TO R
:VZZ005:            -5.31905    -0.38566    -5.77464    11.09367       2.500
 
:CHA  : TOTAL VALENCE CHARGE INSIDE UNIT CELL =      40.458738
 
:SUM  : SUM OF EIGENVALUES =         -49.178704481
 

        1.ATOM      Co1                   5 CORE STATES
:1S 001: 1S                -556.816952351 Ry
:2S 001: 2S                 -64.942407595 Ry
:2PP001: 2P*                -56.179734480 Ry
:2P 001: 2P                 -55.090925176 Ry
:3S 001: 3S                  -6.440625083 Ry

        2.ATOM      Co1                   5 CORE STATES
:1S 002: 1S                -556.816966558 Ry
:2S 002: 2S                 -64.942433106 Ry
:2PP002: 2P*                -56.179757202 Ry
:2P 002: 2P                 -55.090948162 Ry
:3S 002: 3S                  -6.440680794 Ry

        3.ATOM      Co1                   5 CORE STATES
:1S 003: 1S                -556.816904002 Ry
:2S 003: 2S                 -64.942374675 Ry
:2PP003: 2P*                -56.179699634 Ry
:2P 003: 2P                 -55.090890537 Ry
:3S 003: 3S                  -6.440616098 Ry

        4.ATOM      Co2                   5 CORE STATES
       CORE-FORCE in mRy/a.u. = |F|      Fx             Fy             Fz
:FCO004:   4.ATOM      4.730421722939      1.393758793952      4.520434282360      0.000000000000

:1S 004: 1S                -556.814831205 Ry
:2S 004: 2S                 -64.937545964 Ry
:2PP004: 2P*                -56.175286177 Ry
:2P 004: 2P                 -55.086439528 Ry
:3S 004: 3S                  -6.436678284 Ry

        5.ATOM      Tb1                  14 CORE STATES
:1S 005: 1S               -3807.005468225 Ry
:2S 005: 2S                -630.216669446 Ry
:2PP005: 2P*               -598.802512641 Ry
:2P 005: 2P                -543.929720394 Ry
:3S 005: 3S                -139.409284521 Ry
:3PP005: 3P*               -125.754998684 Ry
:3P 005: 3P                -114.439334894 Ry
:3DD005: 3D*                -90.929365837 Ry
:3D 005: 3D                 -88.461740995 Ry
:4S 005: 4S                 -27.284343566 Ry
:4PP005: 4P*                -21.936224035 Ry
:4P 005: 4P                 -19.404909856 Ry
:4DD005: 4D*                -10.599521035 Ry
:4D 005: 4D                 -10.140407270 Ry

        1.ATOM      Co1                   5 CORE STATES
:1S 001: 1S                -556.817453330 Ry
:2S 001: 2S                 -64.875245802 Ry
:2PP001: 2P*                -56.130232118 Ry
:2P 001: 2P                 -55.039853736 Ry
:3S 001: 3S                  -6.298991310 Ry

        2.ATOM      Co1                   5 CORE STATES
:1S 002: 1S                -556.817467019 Ry
:2S 002: 2S                 -64.875254229 Ry
:2PP002: 2P*                -56.130241897 Ry
:2P 002: 2P                 -55.039863397 Ry
:3S 002: 3S                  -6.299009480 Ry

        3.ATOM      Co1                   5 CORE STATES
:1S 003: 1S                -556.817402773 Ry
:2S 003: 2S                 -64.875211372 Ry
:2PP003: 2P*                -56.130195099 Ry
:2P 003: 2P                 -55.039816947 Ry
:3S 003: 3S                  -6.298977248 Ry

        4.ATOM      Co2                   5 CORE STATES
       CORE-FORCE in mRy/a.u. = |F|      Fx             Fy             Fz
:FCO004:   4.ATOM      4.647423863162      1.339053729100      4.450335231695      0.000000000000

:1S 004: 1S                -556.815296282 Ry
:2S 004: 2S                 -64.872042718 Ry
:2PP004: 2P*                -56.127012176 Ry
:2P 004: 2P                 -55.036635444 Ry
:3S 004: 3S                  -6.298500226 Ry

        5.ATOM      Tb1                  14 CORE STATES
:1S 005: 1S               -3807.005585669 Ry
:2S 005: 2S                -630.213535928 Ry
:2PP005: 2P*               -598.801004391 Ry
:2P 005: 2P                -543.927245957 Ry
:3S 005: 3S                -139.241636596 Ry
:3PP005: 3P*               -125.604092080 Ry
:3P 005: 3P                -114.265306858 Ry
:3DD005: 3D*                -90.805234699 Ry
:3D 005: 3D                 -88.331718179 Ry
:4S 005: 4S                 -26.903933968 Ry
:4PP005: 4P*                -21.556362849 Ry
:4P 005: 4P                 -19.029516941 Ry
:4DD005: 4D*                -10.226530308 Ry
:4D 005: 4D                  -9.769176272 Ry
:CINT001 Core Integral Atom   1 Up    5.99961215 Dn   5.999581 Total  11.99919363
:CINT002 Core Integral Atom   2 Up    5.99961215 Dn   5.999581 Total  11.99919362
:CINT003 Core Integral Atom   3 Up    5.99961214 Dn   5.999581 Total  11.99919362
:CINT004 Core Integral Atom   4 Up    5.99960947 Dn   5.999580 Total  11.99918909
:CINT005 Core Integral Atom   5 Up   22.99997711 Dn  22.999973 Total  45.99994993

       DENSITY AT NUCLEUS
        JATOM        VALENCE       SEMI-CORE          CORE           TOTAL
:RTO001:   1        8.142744        0.000000    17496.965333    17505.108078
:RTO002:   2        8.142915        0.000000    17496.964875    17505.107790
:RTO003:   3        8.143965        0.000000    17496.964820    17505.108785
:RTO004:   4        8.090008        0.000000    17496.911509    17505.001517
:RTO005:   5     1239.138080        0.000000  1219630.270427  1220869.408507

       HYPERFINE FIELDS FOR THOMSON RADIUS
:HFF001:          -10.240           0.000        -201.996        -212.235 (KGAUSS)
:HFF002:          -10.195           0.000        -202.053        -212.248 (KGAUSS)
:HFF003:           -9.539           0.000        -201.997        -211.536 (KGAUSS)
:HFF004:           53.367           0.000        -196.789        -143.421 (KGAUSS)
:HFF005:         2512.889           0.000       -2492.124          20.765 (KGAUSS)
:K-LIST:Reduced k-vector list    19745    2293
     
       CHARGES OF NEW CHARGE DENSITY
:NTO   : INTERSTITIAL      UP =     3.420487 DN =     3.908056 TOT =     7.328543
:NPC   : INTERSTITIAL      UP =    10.532958 DN =    10.028621 TOT =    20.561580
:NTO001: CHARGE SPHERE   1 UP =   13.806296 DN =   12.218252 TOT =   26.024548
:NTO002: CHARGE SPHERE   2 UP =   13.806575 DN =   12.218114 TOT =   26.024689
:NTO003: CHARGE SPHERE   3 UP =   13.806432 DN =   12.217804 TOT =   26.024236
:NTO004: CHARGE SPHERE   4 UP =   13.795923 DN =   12.237601 TOT =   26.033524
:NTO005: CHARGE SPHERE   5 UP =   34.107658 DN =   28.419186 TOT =   62.526845

:NEC01: NUCLEAR AND ELECTRONIC CHARGE    200.00000000   199.99590916 Plane Wave
     
       CHARGES OF OLD CHARGE DENSITY
:OTO   : INTERSTITIAL      UP =     3.421996 DN =     3.910902 TOT =     7.332898
:OPC   : INTERSTITIAL      UP =    10.535732 DN =    10.034237 TOT =    20.569969
:OTO001: CHARGE SPHERE   1 UP =   13.806049 DN =   12.218414 TOT =   26.024462
:OTO002: CHARGE SPHERE   2 UP =   13.806268 DN =   12.218138 TOT =   26.024405
:OTO003: CHARGE SPHERE   3 UP =   13.806209 DN =   12.218243 TOT =   26.024453
:OTO004: CHARGE SPHERE   4 UP =   13.795754 DN =   12.237928 TOT =   26.033682
:OTO005: CHARGE SPHERE   5 UP =   34.107147 DN =   28.419270 TOT =   62.526417

:NEC02: NUCLEAR AND ELECTRONIC CHARGE    200.00000000   200.00000000
     
       CONVERGENCE TEST
:DTO001: DIFFERENCE SPHERE  1 UP =  0.0001698 DN =  0.0001102 TOT =  0.0002800
:DTO002: DIFFERENCE SPHERE  2 UP =  0.0001906 DN =  0.0001120 TOT =  0.0003026
:DTO003: DIFFERENCE SPHERE  3 UP =  0.0002249 DN =  0.0004527 TOT =  0.0006776
:DTO004: DIFFERENCE SPHERE  4 UP =  0.0003158 DN =  0.0003628 TOT =  0.0006786
:DTO005: DIFFERENCE SPHERE  5 UP =  0.0005899 DN =  0.0003616 TOT =  0.0009515

:DIS  :  CHARGE DISTANCE      (  0.0005899 for atom    5 spin 1)      0.0011896
 
******************************************************
* Multisecant Mixing Release 10.8.9                  *
* Standard Mode with step bound                      *
* Multisecant MSR1 Algorithm                         *
* Regularization       2.000E-04                     *
* Minimum Greed        1.000E-03                     *
* Max Number of Memory Steps    8                    *
******************************************************
 
:INFOC: Max vcoul   0.00012 for atom   5 average:   0.00006

:FULLRMS/Atom   0.0015777192
:PLANE:  PW /ATOM     1.08559 DISTAN   4.41E-04 %  4.07E-02
:CHARG:  CLM/ATOM   260.58399 DISTAN   1.00E-03 %  3.84E-04
:INFOF Fractnow,Tolerror,TolReject,qtot     0.730     1.667     3.000     0.001 F F F

Step History
        Dmix         Dmixt        Red     Pred      Step      Lambda    MagAbs    Beta
  6   2.3146E-02   8.5497E-03  6.97E-01  7.01E-01  2.38E-01  3.49E+00  7.19E-03  1.00E+00
  7   2.2433E-02   1.9476E-02  1.09E+00  1.13E+00  4.92E-01  2.38E+00  1.04E-02  1.00E+00
  8   4.4866E-02   4.4866E-02  9.19E-01  9.93E-01  7.18E-01  2.18E+00  1.64E-02  1.00E+00
  9   5.1328E-02   2.8587E-02  7.14E-01  8.77E-01  3.91E-01  1.88E+00  8.21E-03  1.00E+00
 10   2.5664E-02   2.5664E-02  8.86E-01  9.24E-01  6.95E-01  1.53E+00  1.04E-02  1.00E+00
 11   5.1328E-02   5.1328E-02  7.84E-01  8.08E-01  6.38E-01  1.38E+00  8.46E-03  1.00E+00
 12   3.8543E-02   3.8543E-02  5.24E-01  5.44E-01  4.56E-01  1.20E+00  4.75E-03  1.00E+00
 13   3.3698E-02   3.3698E-02  9.71E-01  1.00E+00  6.89E-01  1.14E+00  3.75E-03  1.00E+00
 14   6.7397E-02   2.5908E-02  1.00E+00  6.58E-01  4.68E-01  1.08E+00  2.48E-03  7.64E-01
:NOTE :  Number of Memory Steps    8 Skipping    5
:INFOSL ,t1/t2,syy/sys,sqrt(syy/sss)     0.002     0.007     0.338     4.686     4.232     1.107     4.686     6.572     0.713

:PREDicted Charge, CTotal, PW Trust   3.54E-03   6.22E-03   4.77E-03
:PREDicted DMix, Beta, BLim           1.28E-01   6.62E-01   1.26E+00

Eigenvalues, unscaled except for SY+YY with Slambda=   1.00288 Ylambda=   1.00000
   #     SY Real       SY Imag         SS            YY        SY+YY Real     SY+YY Imag
   1   2.02918E+00   0.00000E+00   3.36918E+00   2.30462E+00   4.22327E+00   0.00000E+00
   2   9.58825E-01   0.00000E+00   1.05167E+00   1.17880E+00   2.11290E+00   0.00000E+00
   3   1.77581E-01   0.00000E+00   6.25545E-02   1.04627E+00   1.32512E+00   0.00000E+00
   4   5.98720E-02   0.00000E+00   1.04139E-02   1.35852E-01   2.35258E-01   0.00000E+00
   5   3.01706E-03   0.00000E+00   1.04030E-04   9.01184E-02   9.60359E-02   0.00000E+00
   6   1.37931E-04   0.00000E+00   2.45404E-06   6.30109E-03   7.29279E-03   0.00000E+00
   7   6.47780E-07   0.00000E+00   1.14433E-06   1.00298E-04   1.06661E-04   0.00000E+00
   8   4.91455E-06   0.00000E+00   3.64133E-08   1.16482E-05   1.27370E-05   0.00000E+00

:SING : Singular value  4.277E+00  Weight  1.000E+00  Projection  9.648E-04
:SING : Singular value  2.112E+00  Weight  1.000E+00  Projection  2.513E-03
:SING : Singular value  1.312E+00  Weight  1.000E+00  Projection -3.721E-04
:SING : Singular value  2.352E-01  Weight  1.000E+00  Projection  4.990E-03
:SING : Singular value  9.587E-02  Weight  9.999E-01  Projection -6.168E-04
:SING : Singular value  7.292E-03  Weight  9.864E-01  Projection -2.932E-02
:SING : Singular value  1.067E-04  Weight  1.531E-02  Projection  8.779E-04
:SING : Singular value  1.274E-05  Weight  2.217E-04  Projection -5.750E-05

:RANK :  ACTIVE   6.00/8  =  75.02 % ; YY RANK   6.00/8  =  74.94 %
:DLIM :  Beta Active  7.621E-01
:TRUST:  Step  1.0E+00 Charge  3.8E-03 (e) CTO  1.0E-02 (e) PW  2.4E-02 (e)
:DTRUS:  Lambda   2.634E-02 Increment   7.164E-15 Iterations    49 DMIX   8.093E-02
:DIRM :  MEMORY  8/8  RED  0.73 PRED  0.66 NEXT  0.68 BETA  0.76
:NOTE :  Limited by Atoms F by Step T

:DIRP : |MSR1|= 1.212E-03 |PRATT|= 1.560E-03 ANGLE=  10.7 DEGREES
:DIRQ : |MSR1|= 3.742E-03 |PRATT|= 3.536E-03 ANGLE=  26.5 DEGREES
:DIRT : |MSR1|= 3.933E-03 |PRATT|= 3.865E-03 ANGLE=  25.7 DEGREES
:MIX  :  MSE1   REGULARIZATION:  8.55E-04 GREED: 0.09016  LMStep 0.90  1.0177 Step           
     
       CHARGES OF MIXED CHARGE DENSITY
:CTO   : INTERSTITIAL      UP =     3.422179 DN =     3.910427 TOT =     7.332605
:CPC   : INTERSTITIAL      UP =    10.537861 DN =    10.034261 TOT =    20.572122
:CTO001: CHARGE SPHERE   1 UP =   13.806108 DN =   12.218397 TOT =   26.024505
:CTO002: CHARGE SPHERE   2 UP =   13.806377 DN =   12.218099 TOT =   26.024476
:CTO003: CHARGE SPHERE   3 UP =   13.806289 DN =   12.218149 TOT =   26.024438
:CTO004: CHARGE SPHERE   4 UP =   13.795772 DN =   12.237912 TOT =   26.033685
:CTO005: CHARGE SPHERE   5 UP =   34.107582 DN =   28.419025 TOT =   62.526607

       SPIN MAGNETIC MOMENTS OF MIXED CHARGE DENSITY
:MMINT:  MAGNETIC MOMENT IN INTERSTITIAL  =   -0.48825
:MMI001: MAGNETIC MOMENT IN SPHERE   1    =    1.58771
:MMI002: MAGNETIC MOMENT IN SPHERE   2    =    1.58828
:MMI003: MAGNETIC MOMENT IN SPHERE   3    =    1.58814
:MMI004: MAGNETIC MOMENT IN SPHERE   4    =    1.55786
:MMI005: MAGNETIC MOMENT IN SPHERE   5    =    5.68856
:MMTOT:  SPIN MAGNETIC MOMENT IN CELL     =   13.08016

:NEC03: NUCLEAR AND ELECTRONIC CHARGE    200.00000000   200.00000000

:VSNew: Total Rescaling   1.00000000

PW CHANGE     H    K    L      Current       Change    Residue
:PUP001:      0    0    0  2.44725007E-02  4.053E-06  6.148E-06
:PUP002:     -1    0    0  2.72533403E-03 -2.847E-06 -5.075E-06
:PUP003:     -1    1    0  2.72809368E-03 -2.884E-06 -5.003E-06
:PUP004:      0   -1    0  2.72391698E-03 -2.526E-06 -5.423E-06
:PUP005:      0    0   -1  6.34859305E-03 -2.994E-06 -3.147E-06
:PUP006:     -1    0   -1  6.87302213E-03 -9.598E-07 -1.127E-06
:PUP007:     -1    0    1  6.87599285E-03 -1.044E-06 -1.176E-06
:PUP008:     -1    1   -1  6.87248607E-03 -9.817E-07 -1.098E-06
:PUP009:     -1    1    1  6.87537793E-03 -1.075E-06 -1.154E-06
:PUP010:      0   -1   -1  6.87345169E-03 -8.333E-07 -1.185E-06
:PUP011:      0   -1    1  6.87339971E-03 -8.300E-07 -1.173E-06
:PUP012:     -2    1    0  6.28310745E-03 -2.548E-08  2.005E-07
  
:PDN001:      0    0    0  2.44455872E-02 -7.926E-07 -1.197E-06
:PDN002:     -1    0    0  3.52317867E-03 -3.635E-06 -5.393E-06
:PDN003:     -1    1    0  3.52149133E-03 -3.714E-06 -5.686E-06
:PDN004:      0   -1    0  3.53051011E-03 -3.317E-06 -5.830E-06
:PDN005:      0    0   -1  6.66488029E-03 -3.928E-06 -4.046E-06
:PDN006:     -1    0   -1  6.82316643E-03 -2.258E-06 -2.730E-06
:PDN007:     -1    0    1  6.79821666E-03 -2.483E-06 -2.946E-06
:PDN008:     -1    1   -1  6.82306967E-03 -2.250E-06 -2.481E-06
:PDN009:     -1    1    1  6.79812248E-03 -2.467E-06 -2.675E-06
:PDN010:      0   -1   -1  6.81517922E-03 -2.257E-06 -2.821E-06
:PDN011:      0   -1    1  6.81524645E-03 -2.249E-06 -2.820E-06
:PDN012:     -2    1    0  6.02732457E-03 -1.012E-06 -1.212E-06

:ENE  : ********** TOTAL ENERGY IN Ry =       -37373.11279115

:FOR001:   1.ATOM          0.000          0.000          0.000          0.000 partial forces
:FOR002:   2.ATOM          0.000          0.000          0.000          0.000 partial forces
:FOR003:   3.ATOM          0.000          0.000          0.000          0.000 partial forces
:FOR004:   4.ATOM          0.339          0.324          0.102          0.000 partial forces
:FOR005:   5.ATOM          0.000          0.000          0.000          0.000 partial forces
       TOTAL FORCE WITH RESPECT TO THE GLOBAL COORDINATE SYSTEM:
:FGL001:   1.ATOM                 0.000000000     0.000000000     0.000000000 partial forces
:FGL002:   2.ATOM                 0.000000000     0.000000000     0.000000000 partial forces
:FGL003:   3.ATOM                 0.000000000     0.000000000     0.000000000 partial forces
:FGL004:   4.ATOM                 0.373614048     0.289203927     0.000000000 partial forces
:FGL005:   5.ATOM                 0.000000000     0.000000000     0.000000000 partial forces
