
:LABEL1: Calculations in /pscratch/sd/z/zhang714/cmae_jobs/cmae-main/test_TbCo5/45_n30_regular/case
:LABEL2: on nid006468 at Mon Feb 23 04:50:32 PM PST 2026
:LABEL3: using WIEN2k_24.1 (Release 1/8/2024) in /global/homes/z/zhang714/github/wien2k/src

:LABEL4: using the command: runsp_lapw -so -p -cc 0.001 -ec 0.00001 -i 100

 Euler-Maclaurian Coulomb
 Consistent 3/8+Simpson combinations at start/end
 New Mode for Coulomb Integral
 Extension of core to zero
 LDM version in phi
 Fifth-order quadrature in outwin
 Lebedev-Laikov Grid in lapw0


            ---------
:ITE001:  1. ITERATION
            ---------

:NATO :    5 INDEPENDENT AND    6 TOTAL ATOMS IN UNITCELL
       SUBSTANCE: blebleble                                s-o calc. M||  0.10

       LATTICE                      = H   
:LAT  : LATTICE CONSTANTS=  9.34658  9.34658  7.54001
:VOL  : UNIT CELL VOLUME =     570.43781
:POT  : POTENTIAL OPTION EX_PBE EC_PBE VX_PBE VC_PBE
       MODE OF CALCULATION IS       = RELA
       SPINPOLARIZED CALCULATION
:IFFT  : FFT-parameters:   96   96   80 Factor: 2.00


   CONVERGENCE PARAMETER FOR PSEUDOCHARGE: NCON=  9
   MAXIMAL VALUE OF RMT(JATOM)*ABSK(NKK) : RK  =39.99508


:VKCOUL :  VK-COUL convergence: 0.201E-09
 Lebedev grid of          350
 :rho_min:   2.0000000000000000E-008   1.0000000000000001E-009
:VCOUL001 ATOMNUMBER=  1 Co1     VCOUL-ZERO =  0.54631E+00
:EFG001:                        EFG         =    -0.14524   *10**21  V / m**2
                               V20  TOT/SRF=     0.02223     0.03257
                               V22  TOT/SRF=    -0.06619    -0.12419
                               V22M TOT/SRF=     0.11468     0.21516
                               V21  TOT/SRF=     0.00000     0.00000
                               V21M TOT/SRF=     0.00000     0.00000

             -0.07902    0.11468    0.00000       -0.14524    0.00000    0.00000
              0.11468    0.05335    0.00000        0.00000    0.11957    0.00000
              0.00000    0.00000    0.02567        0.00000    0.00000    0.02567

         MAIN DIRECTIONS OF THE EFG   1.0000  0.5775  0.0000
                                     -0.5775  1.0000  0.0000
                                     -0.0000 -0.0000  1.0000
:ANG001:  ANGLE WITH OLD X-AXIS =        30.0

:ETA001:                         ASYMM. ETA =     0.64651


:VCOUL002 ATOMNUMBER=  2 Co1     VCOUL-ZERO =  0.54630E+00
:EFG002:                        EFG         =    -0.14525   *10**21  V / m**2
                               V20  TOT/SRF=     0.02223     0.03256
                               V22  TOT/SRF=     0.13242     0.24845
                               V22M TOT/SRF=     0.00000     0.00000
                               V21  TOT/SRF=     0.00000     0.00000
                               V21M TOT/SRF=     0.00000     0.00000

              0.11959    0.00000    0.00000        0.11959    0.00000    0.00000
              0.00000   -0.14525    0.00000        0.00000   -0.14525    0.00000
              0.00000    0.00000    0.02566        0.00000    0.00000    0.02566

         MAIN DIRECTIONS OF THE EFG   1.0000 -0.0000  0.0000
                                      0.0000  1.0000  0.0000
                                      0.0000  0.0000  1.0000
:ANG002:  ANGLE WITH OLD X-AXIS =         0.0

:ETA002:                         ASYMM. ETA =     0.64663


:VCOUL003 ATOMNUMBER=  3 Co1     VCOUL-ZERO =  0.54631E+00
:EFG003:                        EFG         =    -0.14524   *10**21  V / m**2
                               V20  TOT/SRF=     0.02223     0.03257
                               V22  TOT/SRF=    -0.06619    -0.12419
                               V22M TOT/SRF=    -0.11468    -0.21516
                               V21  TOT/SRF=     0.00000     0.00000
                               V21M TOT/SRF=     0.00000     0.00000

             -0.07902   -0.11468    0.00000       -0.14524    0.00000    0.00000
             -0.11468    0.05335    0.00000        0.00000    0.11957    0.00000
              0.00000    0.00000    0.02567        0.00000    0.00000    0.02567

         MAIN DIRECTIONS OF THE EFG   1.0000 -0.5775  0.0000
                                      0.5775  1.0000  0.0000
                                     -0.0000 -0.0000  1.0000
:ANG003:  ANGLE WITH OLD X-AXIS =        30.0

:ETA003:                         ASYMM. ETA =     0.64650


:VCOUL004 ATOMNUMBER=  4 Co2     VCOUL-ZERO =  0.53118E+00
:EFG004:                        EFG         =     0.06800   *10**21  V / m**2
                               V20  TOT/SRF=     0.05889     0.14444
                               V22  TOT/SRF=    -0.00000    -0.00000
                               V22M TOT/SRF=    -0.00000    -0.00000
                               V21  TOT/SRF=     0.00000     0.00000
                               V21M TOT/SRF=     0.00000     0.00000

             -0.03400   -0.00000    0.00000       -0.03400    0.00000    0.00000
             -0.00000   -0.03400    0.00000        0.00000   -0.03400    0.00000
              0.00000    0.00000    0.06800        0.00000    0.00000    0.06800

         MAIN DIRECTIONS OF THE EFG   1.0000 -0.0139  0.0000
                                      0.0139  1.0000  0.0000
                                     -0.0000 -0.0000  1.0000
:ANG004:  ANGLE WITH OLD X-AXIS =         0.8

:ETA004:                         ASYMM. ETA =     0.00007


:VCOUL005 ATOMNUMBER=  5 Tb1     VCOUL-ZERO =  0.46773E+00
:EFG005:                        EFG         =    -0.06011   *10**21  V / m**2
                               V20  TOT/SRF=    -0.05205    -0.10149
                               V22  TOT/SRF=    -0.00001    -0.00000
                               V22M TOT/SRF=     0.00000     0.00000
                               V21  TOT/SRF=     0.00000     0.00000
                               V21M TOT/SRF=     0.00000     0.00000

              0.03004    0.00000    0.00000        0.03004    0.00000    0.00000
              0.00000    0.03006    0.00000        0.00000    0.03006    0.00000
              0.00000    0.00000   -0.06011        0.00000    0.00000   -0.06011

         MAIN DIRECTIONS OF THE EFG   1.0000  0.0031  0.0000
                                     -0.0031  1.0000  0.0000
                                     -0.0000 -0.0000  1.0000
:ANG005:  ANGLE WITH OLD X-AXIS =         0.2

:ETA005:                         ASYMM. ETA =     0.00030


     HELLMANN-FEYNMAN-FORCE IN mRy/a.u. = |F|  Fx       Fy             Fz
:FHF001:   1.ATOM      0.000000000000      0.000000000000      0.000000000000      0.000000000000

     HELLMANN-FEYNMAN-FORCE IN mRy/a.u. = |F|  Fx       Fy             Fz
:FHF002:   2.ATOM      0.000000000000      0.000000000000      0.000000000000      0.000000000000

     HELLMANN-FEYNMAN-FORCE IN mRy/a.u. = |F|  Fx       Fy             Fz
:FHF003:   3.ATOM      0.000000000000      0.000000000000      0.000000000000      0.000000000000

     HELLMANN-FEYNMAN-FORCE IN mRy/a.u. = |F|  Fx       Fy             Fz
:FHF004:   4.ATOM      0.040312446454      0.040312443443      0.000015581616      0.000000000000

     HELLMANN-FEYNMAN-FORCE IN mRy/a.u. = |F|  Fx       Fy             Fz
:FHF005:   5.ATOM      0.000000000000      0.000000000000      0.000000000000      0.000000000000

:FIT001: LUSE= 13 SIGMA OF V-XC FIT FOR ATOM  1  0.7059986E-03
:FIT001: LUSE= 13 SIGMA OF V-XC FIT FOR ATOM  1  0.9942214E-03
:FIT002: LUSE= 13 SIGMA OF V-XC FIT FOR ATOM  2  0.5570787E-03
:FIT002: LUSE= 13 SIGMA OF V-XC FIT FOR ATOM  2  0.1019206E-02
:FIT003: LUSE= 13 SIGMA OF V-XC FIT FOR ATOM  3  0.7059987E-03
:FIT003: LUSE= 13 SIGMA OF V-XC FIT FOR ATOM  3  0.9942212E-03
:FIT004: LUSE= 13 SIGMA OF V-XC FIT FOR ATOM  4  0.7020062E-03
:FIT004: LUSE= 13 SIGMA OF V-XC FIT FOR ATOM  4  0.8029772E-03
:FIT005: LUSE= 13 SIGMA OF V-XC FIT FOR ATOM  5  0.3583912E-03
:FIT005: LUSE= 13 SIGMA OF V-XC FIT FOR ATOM  5  0.5521157E-03
:DEN  : DENSITY INTEGRAL  =        -14939.17243347   (Ry)
       ELS_POTENTIAL_AT Z=0 and Z=0.5:  -0.82610  -0.42284
       ELS_POTENTIAL_AT Y=0 and Y=0.5:  -0.46384  -0.34632
:VZERO:v0,v0c,v0x  -1.75964  -0.82610  -0.93353 v5,v5c,v5x  -1.30842  -0.42284  -0.88558
:VZERY:v0,v0c,v0x  -1.32067  -0.46384  -0.85683 v5,v5c,v5x  -1.27041  -0.34632  -0.92409
:VZERX:v0,v0c,v0x  -1.32067  -0.46384  -0.85683 v5,v5c,v5x  -1.27038  -0.34630  -0.92409
:LMAX-WF:   10   Non-Spherical LMAX:   6

          ATOMIC SPHERE DEPENDENT PARAMETERS FOR ATOM  Co1       
:e__0001: OVERALL ENERGY PARAMETER IS    0.3000
          OVERALL BASIS SET ON ATOM IS LAPW
:E1_0001: E( 1)=    0.3000
             APW+lo
:E1_0001: E( 1)=   -3.7891   E(BOTTOM)=   -3.824   E(TOP)=   -3.754  1  2   175
             LOCAL ORBITAL
:E2_0001: E( 2)=    0.3790   E(BOTTOM)=    0.141   E(TOP)=    0.617  0  1   122
             APW+lo
:E0_0001: E( 0)=    0.3000
             APW+lo

          ATOMIC SPHERE DEPENDENT PARAMETERS FOR ATOM  Co1       
:e__0002: OVERALL ENERGY PARAMETER IS    0.3000
          OVERALL BASIS SET ON ATOM IS LAPW
:E1_0002: E( 1)=    0.3000
             APW+lo
:E1_0002: E( 1)=   -3.7891   E(BOTTOM)=   -3.824   E(TOP)=   -3.754  1  2   180
             LOCAL ORBITAL
:E2_0002: E( 2)=    0.3790   E(BOTTOM)=    0.141   E(TOP)=    0.617  0  1   125
             APW+lo
:E0_0002: E( 0)=    0.3000
             APW+lo

          ATOMIC SPHERE DEPENDENT PARAMETERS FOR ATOM  Co1       
:e__0003: OVERALL ENERGY PARAMETER IS    0.3000
          OVERALL BASIS SET ON ATOM IS LAPW
:E1_0003: E( 1)=    0.3000
             APW+lo
:E1_0003: E( 1)=   -3.7891   E(BOTTOM)=   -3.824   E(TOP)=   -3.754  1  2   176
             LOCAL ORBITAL
:E2_0003: E( 2)=    0.3790   E(BOTTOM)=    0.141   E(TOP)=    0.617  0  1   123
             APW+lo
:E0_0003: E( 0)=    0.3000
             APW+lo

          ATOMIC SPHERE DEPENDENT PARAMETERS FOR ATOM  Co2       
:e__0004: OVERALL ENERGY PARAMETER IS    0.3000
          OVERALL BASIS SET ON ATOM IS LAPW
:E1_0004: E( 1)=    0.3000
             APW+lo
:E1_0004: E( 1)=   -3.8024   E(BOTTOM)=   -3.838   E(TOP)=   -3.767  1  2   175
             LOCAL ORBITAL
:E2_0004: E( 2)=    0.3654   E(BOTTOM)=    0.127   E(TOP)=    0.604  0  1   129
             APW+lo
:E0_0004: E( 0)=    0.3000
             APW+lo

          ATOMIC SPHERE DEPENDENT PARAMETERS FOR ATOM  Tb1       
:e__0005: OVERALL ENERGY PARAMETER IS    0.3000
          OVERALL BASIS SET ON ATOM IS LAPW
:E0_0005: E( 0)=    0.3000
             APW+lo
:E0_0005: E( 0)=   -2.6516   E(BOTTOM)=   -2.847   E(TOP)=   -2.456  4  5   183
             LOCAL ORBITAL
:E1_0005: E( 1)=    0.7000
             APW+lo
:E1_0005: E( 1)=   -0.9352   E(BOTTOM)=   -1.369   E(TOP)=   -0.502  3  4   172
             LOCAL ORBITAL
:E3_0005: E( 3)=    0.4519   E(BOTTOM)=    0.388   E(TOP)=    0.515  0  1   113
             APW+lo
:E2_0005: E( 2)=    0.4073   E(BOTTOM)=    0.407   E(TOP)= -520.000  2 -1    93
             APW+lo

       K=  0.031250  0.031250  0.029412            1
:RKM  : MATRIX SIZE   653LOs:  80  RKM= 9.00  WEIGHT= 2.00  PGR:    
       EIGENVALUES ARE:
:EIG00001:      -3.8043247   -3.7984230   -3.7965091   -3.7943958   -3.7943544
:EIG00006:      -3.7939373   -3.7939195   -3.7833740   -3.7832977   -3.7819721
:EIG00011:      -3.7819385   -3.7782177   -3.7750241   -3.7749660   -3.7717093
:EIG00016:      -2.6165642   -0.9166292   -0.9165443   -0.8905846   -0.0051009
:EIG00021:       0.2046593    0.2842850    0.2872593    0.2876139    0.2908442
:EIG00026:       0.2920457    0.3087558    0.3093162    0.3216690    0.3243896
:EIG00031:       0.3556781    0.3563207    0.3920827    0.3927716    0.4169286
:EIG00036:       0.4293185    0.4295831    0.4516931    0.4553773    0.4563058
:EIG00041:       0.4569010    0.4613485    0.4627447    0.4631793    0.4636948
:EIG00046:       0.4665144    0.4667835    0.4687456    0.4689442    0.5183732

:EIG00051:       0.5211531    0.5303324    0.6205081    0.6790488    0.6812145
:EIG00056:       0.7060073    0.7739650    0.7995664    0.8157118    0.9925817
:EIG00061:       0.9954386    1.1848239    1.2564635    1.2607452    1.3399588
:EIG00066:       1.3692699    1.4115884    1.4195382    1.4578632    1.4845894
:EIG00071:       1.4997659    1.6326807    1.6471719    1.7417384    1.7430471
:EIG00076:       1.8955357    1.9068696    2.1061370    2.1128699    2.2573455
:EIG00081:       2.3075990    2.3223533    2.3273471    2.3691336    2.3825113
:EIG00086:       2.4053275    2.4455188    2.4697439    2.5146897    2.5153898
:EIG00091:       2.6767295    2.7799351    2.7886356    2.8496032    2.9145939
:EIG00096:       2.9532677    2.9686484    2.9723553    2.9888875    3.0109116

:EIG00101:       3.0331444    3.0524197    3.1432381    3.1565927    3.2241681
:EIG00106:       3.2522132    3.2715034    3.2817923    3.3643369    3.3671159
:EIG00111:       3.4338731    3.4941847    3.5110124    3.5733490    3.5790894
:EIG00116:       3.6128575    3.6664438    3.7242708    3.7440341    3.7886206
:EIG00121:       3.7926940    3.8462189    4.0023581    4.0398413    4.0684770
:EIG00126:       4.0697309    4.1193215    4.1661309    4.2144842    4.2649691
:EIG00131:       4.3363526    4.3422602    4.3967079    4.4214732    4.4294061
:EIG00136:       4.4512020    4.4599813    4.4712333    4.5899057    4.5954866
:EIG00141:       4.6059007    4.6178789    4.6629028    4.6875921    4.7327898
:EIG00146:       4.7407385    4.7861170    4.8050793    4.8187322    4.8289455

:EIG00151:       4.8426046    4.8963707    4.9071782    4.9576151    4.9704254
:EIG00156:       5.0124964    5.0423926    5.0537208    5.1085765    5.1689700
:EIG00161:       5.1770506    5.2038988    5.2350777    5.3039588    5.3497966
:EIG00166:       5.3602985    5.4045648    5.4692648    5.4742840    5.4809667
       ********************************************************

:KPT   :      NUMBER OF K-POINTS:    2176
:LMAX-WF:   10   Non-Spherical LMAX:   6

          ATOMIC SPHERE DEPENDENT PARAMETERS FOR ATOM  Co1       
:e__0001: OVERALL ENERGY PARAMETER IS    0.3000
          OVERALL BASIS SET ON ATOM IS LAPW
:E1_0001: E( 1)=    0.3000
             APW+lo
:E1_0001: E( 1)=   -3.5545   E(BOTTOM)=   -3.593   E(TOP)=   -3.516  1  2   205
             LOCAL ORBITAL
:E2_0001: E( 2)=    0.5878   E(BOTTOM)=    0.323   E(TOP)=    0.852  0  1   131
             APW+lo
:E0_0001: E( 0)=    0.3000
             APW+lo

          ATOMIC SPHERE DEPENDENT PARAMETERS FOR ATOM  Co1       
:e__0002: OVERALL ENERGY PARAMETER IS    0.3000
          OVERALL BASIS SET ON ATOM IS LAPW
:E1_0002: E( 1)=    0.3000
             APW+lo
:E1_0002: E( 1)=   -3.5545   E(BOTTOM)=   -3.593   E(TOP)=   -3.516  1  2   202
             LOCAL ORBITAL
:E2_0002: E( 2)=    0.5878   E(BOTTOM)=    0.323   E(TOP)=    0.852  0  1   128
             APW+lo
:E0_0002: E( 0)=    0.3000
             APW+lo

          ATOMIC SPHERE DEPENDENT PARAMETERS FOR ATOM  Co1       
:e__0003: OVERALL ENERGY PARAMETER IS    0.3000
          OVERALL BASIS SET ON ATOM IS LAPW
:E1_0003: E( 1)=    0.3000
             APW+lo
:E1_0003: E( 1)=   -3.5545   E(BOTTOM)=   -3.593   E(TOP)=   -3.516  1  2   203
             LOCAL ORBITAL
:E2_0003: E( 2)=    0.5878   E(BOTTOM)=    0.323   E(TOP)=    0.852  0  1   129
             APW+lo
:E0_0003: E( 0)=    0.3000
             APW+lo

          ATOMIC SPHERE DEPENDENT PARAMETERS FOR ATOM  Co2       
:e__0004: OVERALL ENERGY PARAMETER IS    0.3000
          OVERALL BASIS SET ON ATOM IS LAPW
:E1_0004: E( 1)=    0.3000
             APW+lo
:E1_0004: E( 1)=   -3.5677   E(BOTTOM)=   -3.606   E(TOP)=   -3.530  1  2   198
             LOCAL ORBITAL
:E2_0004: E( 2)=    0.5745   E(BOTTOM)=    0.310   E(TOP)=    0.839  0  1   130
             APW+lo
:E0_0004: E( 0)=    0.3000
             APW+lo

          ATOMIC SPHERE DEPENDENT PARAMETERS FOR ATOM  Tb1       
:e__0005: OVERALL ENERGY PARAMETER IS    0.3000
          OVERALL BASIS SET ON ATOM IS LAPW
:E0_0005: E( 0)=    0.3000
             APW+lo
:E0_0005: E( 0)=   -2.4426   E(BOTTOM)=   -2.655   E(TOP)=   -2.230  4  5   208
             LOCAL ORBITAL
:E1_0005: E( 1)=    0.7000
             APW+lo
:E1_0005: E( 1)=   -0.7666   E(BOTTOM)=   -1.226   E(TOP)=   -0.307  3  4   195
             LOCAL ORBITAL
:E3_0005: E( 3)=    0.7929   E(BOTTOM)=    0.711   E(TOP)=    0.875  0  1   144
             APW+lo
:E2_0005: E( 2)=    0.5095   E(BOTTOM)=    0.510   E(TOP)= -520.000  2 -1    98
             APW+lo

       K=  0.031250  0.031250  0.029412            1
:RKM  : MATRIX SIZE   653LOs:  80  RKM= 9.00  WEIGHT= 2.00  PGR:    
       EIGENVALUES ARE:
:EIG00001:      -3.5701486   -3.5638232   -3.5619158   -3.5590569   -3.5590192
:EIG00006:      -3.5586372   -3.5586151   -3.5480035   -3.5479227   -3.5466122
:EIG00011:      -3.5465705   -3.5421557   -3.5392130   -3.5391456   -3.5357531
:EIG00016:      -2.4057311   -0.7565373   -0.7564166   -0.7269629    0.0592125
:EIG00021:       0.3540021    0.4093273    0.4178237    0.4505007    0.4623265
:EIG00026:       0.4624941    0.4677051    0.4704720    0.4938443    0.4942255
:EIG00031:       0.5434633    0.5441099    0.5791927    0.5804898    0.6251345
:EIG00036:       0.6360807    0.6364614    0.6588257    0.6588806    0.6712885
:EIG00041:       0.6806210    0.6808513    0.7068979    0.7344473    0.7469944
:EIG00046:       0.7550151    0.7569862    0.7884413    0.7917177    0.8024525

:EIG00051:       0.8093499    0.8094668    0.8240349    0.8330442    0.8379611
:EIG00056:       0.8666445    0.8830625    0.8981658    0.9322197    1.1016129
:EIG00061:       1.1043306    1.3053985    1.3664303    1.3718698    1.4403681
:EIG00066:       1.4628396    1.5052847    1.5080696    1.5345805    1.5870315
:EIG00071:       1.5943444    1.7139624    1.7333251    1.8023263    1.8108264
:EIG00076:       1.9709259    1.9818871    2.1962938    2.2019879    2.3269137
:EIG00081:       2.3523291    2.3665470    2.3816074    2.4296819    2.4475187
:EIG00086:       2.4694809    2.5113588    2.5373090    2.5829765    2.5835907
:EIG00091:       2.7202350    2.8349832    2.8457363    2.8894651    2.9821622
:EIG00096:       3.0170315    3.0506258    3.0593160    3.0688418    3.0728920

:EIG00101:       3.1042535    3.1139063    3.1864306    3.2004104    3.2888841
:EIG00106:       3.3135587    3.3163091    3.3340539    3.4300853    3.4329695
:EIG00111:       3.4948419    3.5518373    3.5778340    3.6326443    3.6362272
:EIG00116:       3.6686112    3.7265214    3.7823871    3.8084140    3.8543942
:EIG00121:       3.8553236    3.9183063    4.0598908    4.1098190    4.1358214
:EIG00126:       4.1380974    4.1707217    4.2225680    4.2803832    4.3451748
:EIG00131:       4.3965090    4.4029826    4.4542873    4.4809314    4.4862922
:EIG00136:       4.5138827    4.5336242    4.5371180    4.6520474    4.6571123
:EIG00141:       4.6649543    4.6757777    4.7214825    4.7475307    4.7797137
:EIG00146:       4.7874202    4.8336060    4.8569183    4.8645442    4.8797116

:EIG00151:       4.8909934    4.9495786    4.9641172    5.0173619    5.0299048
:EIG00156:       5.0748097    5.0929556    5.1053207    5.1768109    5.2287869
:EIG00161:       5.2385782    5.2699619    5.2959874    5.3662393    5.4229869
:EIG00166:       5.4355888    5.4638367
       ********************************************************

:KPT   :      NUMBER OF K-POINTS:    2176
  Potential not averaged when calculating dV/dr
  45.0 -30.0 angle (M,z), angle (M,x) deg

        SPIN-ORBIT EIGENVALUES:
     K=  0.031250  0.031250  0.029412            1
      MATRIX SIZE=  337   WEIGHT= 2.00
     EIGENVALUES ARE:
          -3.8539278   -3.8535310   -3.8440821   -3.8411813   -3.8358522
          -3.8159378   -3.8149819   -3.8046266   -3.7993017   -3.7966251
          -3.7507218   -3.7499430   -3.7402392   -3.7369471   -3.7318644
          -3.5862113   -3.5855387   -3.5767181   -3.5736108   -3.5673377
          -3.5490400   -3.5476215   -3.5378676   -3.5317427   -3.5288090
          -3.5159046   -3.5141644   -3.5054518   -3.5014699   -3.4963627
          -2.6165641   -2.4057311   -1.0785904   -1.0239845   -0.8122158
          -0.7348032   -0.6889246   -0.6528511   -0.0050908    0.0592251

           0.2045872    0.2841009    0.2870658    0.2875125    0.2906446
           0.2921094    0.3079733    0.3098158    0.3215482    0.3242059
           0.3538650    0.3544121    0.3571291    0.3912530    0.3936171
           0.4091833    0.4161475    0.4175978    0.4275405    0.4313397
           0.4335398    0.4437845    0.4499324    0.4521044    0.4532166
           0.4562834    0.4582946    0.4610402    0.4624972    0.4628209
           0.4663902    0.4672412    0.4678368    0.4699662    0.4707404
           0.4775883    0.4897810    0.4930139    0.4952360    0.5184993

           0.5216205    0.5306658    0.5421616    0.5453260    0.5785328
           0.5812283    0.6206440    0.6246620    0.6348970    0.6382694
           0.6558101    0.6621096    0.6709712    0.6783949    0.6808047
           0.6813790    0.6820717    0.7059504    0.7069152    0.7335628
           0.7468374    0.7549711    0.7569169    0.7740426    0.7813935
           0.7922568    0.7963040    0.8001936    0.8072335    0.8167270
           0.8216739    0.8318156    0.8360175    0.8395750    0.8686775
           0.8838629    0.8996978    0.9321601    0.9904862    0.9972852

           1.0995860    1.1058270    1.1848835    1.2529734    1.2639794
           1.3054206    1.3399147    1.3638158    1.3695573    1.3746997
           1.4115393    1.4189361    1.4404729    1.4570603    1.4629433
           1.4843950    1.4989095    1.5053445    1.5080111    1.5356836
           1.5868508    1.5945480    1.6328211    1.6473825    1.7137892
           1.7327540    1.7429991    1.7442763    1.8024269    1.8094860
           1.8957224
       ********************************************************
:GAP (global)   :    0.0    Ry =     0.0   eV (metal)
:GAP (this spin):    0.0    Ry =     0.0   eV (metal)
         Bandranges (emin - emax) and occupancy:
:BAN00087:  87    0.540551    0.624390  1.00000000
:BAN00088:  88    0.541930    0.633564  1.00000000
:BAN00089:  89    0.566081    0.639915  1.00000000
:BAN00090:  90    0.577033    0.647823  1.00000000
:BAN00091:  91    0.579353    0.656137  0.99880457
:BAN00092:  92    0.586934    0.662322  0.97142800
:BAN00093:  93    0.615524    0.671132  0.92949466
:BAN00094:  94    0.620717    0.679035  0.79177482
:BAN00095:  95    0.627603    0.680805  0.27722676
:BAN00096:  96    0.645285    0.681560  0.03098019
:BAN00097:  97    0.652886    0.687251  0.00029105
:BAN00098:  98    0.665437    0.705950  0.00000000
:BAN00099:  99    0.672602    0.728701  0.00000000
:BAN00100: 100    0.679642    0.735612  0.00000000
:BAN00101: 101    0.686840    0.748332  0.00000000
:BAN00102: 102    0.698603    0.774066  0.00000000
        Energy to separate low and high energystates:   -0.05646


:NOE  : NUMBER OF ELECTRONS          =   94.000

:FER  : F E R M I - ENERGY(TETRAH.M.)=   0.6554084633
:GMA  : POTENTIAL AND CHARGE CUT-OFF  16.00 Ry**.5
 
:POS001: ATOM   -1 X,Y,Z = 0.50000 0.00000 0.50000  MULT= 1  ZZ= 27.000  Co1
 
       LMMAX 16
       LM=   0 0  2 0  2 2 -2 2  4 0  4 2 -4 2  4 4 -4 4  6 0  6 2 -6 2  6 4 -6 4  6 6 -6 6
 
:CHA001: TOTAL VALENCE CHARGE INSIDE SPHERE   1 =   7.9792    (RMT=  2.3000 )
:PCS001: PARTIAL CHARGES SPHERE =  1 S,P,D,F,PX,PY,PZ,D-Z2,D-X2Y2,D-XY,D-XZ,D-YZ
:QTL001: 0.2407 3.2110 4.5098 0.0131 1.0557 1.0805 1.0751 0.8954 0.8981 0.9069 0.9088 0.9006
        Q-s-low E-s-low   Q-p-low E-p-low   Q-d-low E-d-low   Q-f-low E-f-low
:EPL001:  0.0000 10.0000    2.9952 -3.7814    0.0000 10.0000    0.0000 10.0000
        Q-s-hi  E-s-hi    Q-p-hi  E-p-hi    Q-d-hi  E-d-hi    Q-f-hi  E-f-hi
:EPH001:  0.2402  0.2544    0.2158  0.3990    4.5091  0.4001    0.0130  0.3935
 
                      QXX         QXY         QYY         QZZ       UP TO R
:VZZ001:             1.67156    -2.50036    -1.23077    -0.44078       2.300
 
:POS002: ATOM   -2 X,Y,Z = 0.00000 0.50000 0.50000  MULT= 1  ZZ= 27.000  Co1
 
       LMMAX 16
       LM=   0 0  2 0  2 2 -2 2  4 0  4 2 -4 2  4 4 -4 4  6 0  6 2 -6 2  6 4 -6 4  6 6 -6 6
 
:CHA002: TOTAL VALENCE CHARGE INSIDE SPHERE   2 =   7.9793    (RMT=  2.3000 )
:PCS002: PARTIAL CHARGES SPHERE =  2 S,P,D,F,PX,PY,PZ,D-Z2,D-X2Y2,D-XY,D-XZ,D-YZ
:QTL002: 0.2406 3.2108 4.5098 0.0132 1.0929 1.0433 1.0749 0.8952 0.9109 0.8942 0.8963 0.9127
        Q-s-low E-s-low   Q-p-low E-p-low   Q-d-low E-d-low   Q-f-low E-f-low
:EPL002:  0.0000 10.0000    2.9952 -3.7814    0.0000 10.0000    0.0000 10.0000
        Q-s-hi  E-s-hi    Q-p-hi  E-p-hi    Q-d-hi  E-d-hi    Q-f-hi  E-f-hi
:EPH002:  0.2397  0.2544    0.2156  0.3991    4.5092  0.4001    0.0132  0.3940
 
                      QXX         QXY         QYY         QZZ       UP TO R
:VZZ002:            -2.66464     0.00534     3.10812    -0.44348       2.300
 
:POS003: ATOM   -3 X,Y,Z = 0.50000 0.50000 0.50000  MULT= 1  ZZ= 27.000  Co1
 
       LMMAX 16
       LM=   0 0  2 0  2 2 -2 2  4 0  4 2 -4 2  4 4 -4 4  6 0  6 2 -6 2  6 4 -6 4  6 6 -6 6
 
:CHA003: TOTAL VALENCE CHARGE INSIDE SPHERE   3 =   7.9792    (RMT=  2.3000 )
:PCS003: PARTIAL CHARGES SPHERE =  3 S,P,D,F,PX,PY,PZ,D-Z2,D-X2Y2,D-XY,D-XZ,D-YZ
:QTL003: 0.2405 3.2109 4.5097 0.0130 1.0558 1.0805 1.0746 0.8951 0.8982 0.9068 0.9087 0.9007
        Q-s-low E-s-low   Q-p-low E-p-low   Q-d-low E-d-low   Q-f-low E-f-low
:EPL003:  0.0000 10.0000    2.9952 -3.7814    0.0000 10.0000    0.0000 10.0000
        Q-s-hi  E-s-hi    Q-p-hi  E-p-hi    Q-d-hi  E-d-hi    Q-f-hi  E-f-hi
:EPH003:  0.2398  0.2544    0.2156  0.3991    4.5092  0.4001    0.0130  0.3936
 
                      QXX         QXY         QYY         QZZ       UP TO R
:VZZ003:             1.66167     2.50694    -1.23562    -0.42601       2.300
 
:POS004: ATOM   -4 X,Y,Z = 0.33333 0.66667 0.00000  MULT= 2  ZZ= 27.000  Co2
 
       LMMAX 28
       LM=   0 0  1 1 -1 1  2 0  2 2 -2 2  3 1 -3 1  3 3 -3 3  4 0  4 2 -4 2  4 4 -4 4  5 1 -5 1
         5 3 -5 3  5 5 -5 5  6 0  6 2 -6 2  6 4 -6 4  6 6 -6 6
 
:CHA004: TOTAL VALENCE CHARGE INSIDE SPHERE   4 =   7.9971    (RMT=  2.3000 )
:PCS004: PARTIAL CHARGES SPHERE =  4 S,P,D,F,PX,PY,PZ,D-Z2,D-X2Y2,D-XY,D-XZ,D-YZ
:QTL004: 0.2509 3.2116 4.5181 0.0128 1.0608 1.0606 1.0905 0.9113 0.9098 0.9096 0.8939 0.8937
        Q-s-low E-s-low   Q-p-low E-p-low   Q-d-low E-d-low   Q-f-low E-f-low
:EPL004:  0.0024 -1.0016    2.9958 -3.7933    0.0025 -1.2355    0.0000 10.0000
        Q-s-hi  E-s-hi    Q-p-hi  E-p-hi    Q-d-hi  E-d-hi    Q-f-hi  E-f-hi
:EPH004:  0.2492  0.2740    0.2153  0.4091    4.5160  0.3871    0.0126  0.4036
 
                      QXX         QXY         QYY         QZZ       UP TO R
:VZZ004:             1.10810    -0.00282     1.10905    -2.21717       2.300
 
:POS005: ATOM   -5 X,Y,Z = 0.00000 0.00000 0.00000  MULT= 1  ZZ= 65.000  Tb1
 
       LMMAX 16
       LM=   0 0  2 0  2 2 -2 2  4 0  4 2 -4 2  4 4 -4 4  6 0  6 2 -6 2  6 4 -6 4  6 6 -6 6
 
:CHA005: TOTAL VALENCE CHARGE INSIDE SPHERE   5 =  11.0140    (RMT=  2.5000 )
:PCS005: PARTIAL CHARGES SPHERE =  5 S,P,D,F,PX,PY,PZ,D-Z2,D-X2Y2,D-XY,D-XZ,D-YZ
:QTL005: 1.0469 2.8704 0.2268 6.8674 0.9590 0.9592 0.9520 0.0304 0.0626 0.0621 0.0356 0.0359
        Q-s-low E-s-low   Q-p-low E-p-low   Q-d-low E-d-low   Q-f-low E-f-low
:EPL005:  0.9856 -2.6163    2.7791 -0.9175    0.0000 10.0000    0.0000 10.0000
        Q-s-hi  E-s-hi    Q-p-hi  E-p-hi    Q-d-hi  E-d-hi    Q-f-hi  E-f-hi
:EPH005:  0.0620  0.3426    0.0913  0.3770    0.2268  0.4329    6.8674  0.4622
 
                      QXX         QXY         QYY         QZZ       UP TO R
:VZZ005:            -2.76771    -0.16180    -3.05418     5.82186       2.500
 
:CHA  : TOTAL VALENCE CHARGE INSIDE UNIT CELL =      54.480593
 
:SUM  : SUM OF EIGENVALUES =         -47.980729040
 
:GAP (global)   :    0.0    Ry =     0.0   eV (metal)
:GAP (this spin):    0.0    Ry =     0.0   eV (metal)
         Bandranges (emin - emax) and occupancy:
:BAN00087:  87    0.540551    0.624390  1.00000000
:BAN00088:  88    0.541930    0.633564  1.00000000
:BAN00089:  89    0.566081    0.639915  1.00000000
:BAN00090:  90    0.577033    0.647823  1.00000000
:BAN00091:  91    0.579353    0.656137  0.99880457
:BAN00092:  92    0.586934    0.662322  0.97142800
:BAN00093:  93    0.615524    0.671132  0.92949466
:BAN00094:  94    0.620717    0.679035  0.79177482
:BAN00095:  95    0.627603    0.680805  0.27722676
:BAN00096:  96    0.645285    0.681560  0.03098019
:BAN00097:  97    0.652886    0.687251  0.00029105
:BAN00098:  98    0.665437    0.705950  0.00000000
:BAN00099:  99    0.672602    0.728701  0.00000000
:BAN00100: 100    0.679642    0.735612  0.00000000
:BAN00101: 101    0.686840    0.748332  0.00000000
:BAN00102: 102    0.698603    0.774066  0.00000000
        Energy to separate low and high energystates:   -0.05646


:NOE  : NUMBER OF ELECTRONS          =   94.000

:FER  : F E R M I - ENERGY(TETRAH.M.)=   0.6554084633
:GMA  : POTENTIAL AND CHARGE CUT-OFF  16.00 Ry**.5
 
:POS001: ATOM   -1 X,Y,Z = 0.50000 0.00000 0.50000  MULT= 1  ZZ= 27.000  Co1
 
       LMMAX 16
       LM=   0 0  2 0  2 2 -2 2  4 0  4 2 -4 2  4 4 -4 4  6 0  6 2 -6 2  6 4 -6 4  6 6 -6 6
 
:CHA001: TOTAL VALENCE CHARGE INSIDE SPHERE   1 =   6.1746    (RMT=  2.3000 )
:PCS001: PARTIAL CHARGES SPHERE =  1 S,P,D,F,PX,PY,PZ,D-Z2,D-X2Y2,D-XY,D-XZ,D-YZ
:QTL001: 0.2404 3.2248 2.6925 0.0130 1.0611 1.0844 1.0795 0.5816 0.5502 0.5126 0.5060 0.5419
        Q-s-low E-s-low   Q-p-low E-p-low   Q-d-low E-d-low   Q-f-low E-f-low
:EPL001:  0.0000 10.0000    2.9952 -3.5459    0.0000 10.0000    0.0000 10.0000
        Q-s-hi  E-s-hi    Q-p-hi  E-p-hi    Q-d-hi  E-d-hi    Q-f-hi  E-f-hi
:EPH001:  0.2395  0.3163    0.2300  0.4747    2.6914  0.5353    0.0128  0.5336
 
                      QXX         QXY         QYY         QZZ       UP TO R
:VZZ001:             2.05165    -1.86625    -0.09613    -1.95550       2.300
 
:POS002: ATOM   -2 X,Y,Z = 0.00000 0.50000 0.50000  MULT= 1  ZZ= 27.000  Co1
 
       LMMAX 16
       LM=   0 0  2 0  2 2 -2 2  4 0  4 2 -4 2  4 4 -4 4  6 0  6 2 -6 2  6 4 -6 4  6 6 -6 6
 
:CHA002: TOTAL VALENCE CHARGE INSIDE SPHERE   2 =   6.1744    (RMT=  2.3000 )
:PCS002: PARTIAL CHARGES SPHERE =  2 S,P,D,F,PX,PY,PZ,D-Z2,D-X2Y2,D-XY,D-XZ,D-YZ
:QTL002: 0.2402 3.2253 2.6923 0.0131 1.0963 1.0495 1.0796 0.5820 0.4943 0.5687 0.5597 0.4881
        Q-s-low E-s-low   Q-p-low E-p-low   Q-d-low E-d-low   Q-f-low E-f-low
:EPL002:  0.0000 10.0000    2.9952 -3.5459    0.0000 10.0000    0.0000 10.0000
        Q-s-hi  E-s-hi    Q-p-hi  E-p-hi    Q-d-hi  E-d-hi    Q-f-hi  E-f-hi
:EPH002:  0.2395  0.3164    0.2304  0.4747    2.6916  0.5353    0.0128  0.5337
 
                      QXX         QXY         QYY         QZZ       UP TO R
:VZZ002:            -1.19531     0.01561     3.13902    -1.94367       2.300
 
:POS003: ATOM   -3 X,Y,Z = 0.50000 0.50000 0.50000  MULT= 1  ZZ= 27.000  Co1
 
       LMMAX 16
       LM=   0 0  2 0  2 2 -2 2  4 0  4 2 -4 2  4 4 -4 4  6 0  6 2 -6 2  6 4 -6 4  6 6 -6 6
 
:CHA003: TOTAL VALENCE CHARGE INSIDE SPHERE   3 =   6.1746    (RMT=  2.3000 )
:PCS003: PARTIAL CHARGES SPHERE =  3 S,P,D,F,PX,PY,PZ,D-Z2,D-X2Y2,D-XY,D-XZ,D-YZ
:QTL003: 0.2404 3.2253 2.6921 0.0130 1.0611 1.0846 1.0795 0.5817 0.5496 0.5125 0.5065 0.5416
        Q-s-low E-s-low   Q-p-low E-p-low   Q-d-low E-d-low   Q-f-low E-f-low
:EPL003:  0.0000 10.0000    2.9952 -3.5459    0.0000 10.0000    0.0000 10.0000
        Q-s-hi  E-s-hi    Q-p-hi  E-p-hi    Q-d-hi  E-d-hi    Q-f-hi  E-f-hi
:EPH003:  0.2395  0.3164    0.2302  0.4747    2.6914  0.5353    0.0129  0.5336
 
                      QXX         QXY         QYY         QZZ       UP TO R
:VZZ003:             2.04446     1.88013    -0.08205    -1.96244       2.300
 
:POS004: ATOM   -4 X,Y,Z = 0.33333 0.66667 0.00000  MULT= 2  ZZ= 27.000  Co2
 
       LMMAX 28
       LM=   0 0  1 1 -1 1  2 0  2 2 -2 2  3 1 -3 1  3 3 -3 3  4 0  4 2 -4 2  4 4 -4 4  5 1 -5 1
         5 3 -5 3  5 5 -5 5  6 0  6 2 -6 2  6 4 -6 4  6 6 -6 6
 
:CHA004: TOTAL VALENCE CHARGE INSIDE SPHERE   4 =   6.4408    (RMT=  2.3000 )
:PCS004: PARTIAL CHARGES SPHERE =  4 S,P,D,F,PX,PY,PZ,D-Z2,D-X2Y2,D-XY,D-XZ,D-YZ
:QTL004: 0.2335 3.2200 2.9717 0.0128 1.0606 1.0606 1.0986 0.5579 0.6217 0.6223 0.5849 0.5849
        Q-s-low E-s-low   Q-p-low E-p-low   Q-d-low E-d-low   Q-f-low E-f-low
:EPL004:  0.0026 -0.8506    2.9952 -3.5575    0.0032 -1.1039    0.0000 10.0000
        Q-s-hi  E-s-hi    Q-p-hi  E-p-hi    Q-d-hi  E-d-hi    Q-f-hi  E-f-hi
:EPH004:  0.2314  0.3135    0.2236  0.4766    2.9692  0.5351    0.0124  0.5465
 
                      QXX         QXY         QYY         QZZ       UP TO R
:VZZ004:            -0.04713     0.00604    -0.04092     0.08806       2.300
 
:POS005: ATOM   -5 X,Y,Z = 0.00000 0.00000 0.00000  MULT= 1  ZZ= 65.000  Tb1
 
       LMMAX 16
       LM=   0 0  2 0  2 2 -2 2  4 0  4 2 -4 2  4 4 -4 4  6 0  6 2 -6 2  6 4 -6 4  6 6 -6 6
 
:CHA005: TOTAL VALENCE CHARGE INSIDE SPHERE   5 =   4.2648    (RMT=  2.5000 )
:PCS005: PARTIAL CHARGES SPHERE =  5 S,P,D,F,PX,PY,PZ,D-Z2,D-X2Y2,D-XY,D-XZ,D-YZ
:QTL005: 1.0423 2.8550 0.2540 0.1117 0.9534 0.9536 0.9479 0.0362 0.0621 0.0622 0.0467 0.0466
        Q-s-low E-s-low   Q-p-low E-p-low   Q-d-low E-d-low   Q-f-low E-f-low
:EPL005:  0.9824 -2.4054    2.7420 -0.7573    0.0000 10.0000    0.0000 10.0000
        Q-s-hi  E-s-hi    Q-p-hi  E-p-hi    Q-d-hi  E-d-hi    Q-f-hi  E-f-hi
:EPH005:  0.0590  0.3796    0.1131  0.4646    0.2540  0.5064    0.1114  0.5318
 
                      QXX         QXY         QYY         QZZ       UP TO R
:VZZ005:            -1.84409     0.13160    -1.68937     3.53342       2.500
 
:CHA  : TOTAL VALENCE CHARGE INSIDE UNIT CELL =      39.519408
 
:SUM  : SUM OF EIGENVALUES =         -47.603469553
 

        1.ATOM      Co1                   5 CORE STATES
:1S 001: 1S                -556.759278885 Ry
:2S 001: 2S                 -64.915703655 Ry
:2PP001: 2P*                -56.145876605 Ry
:2P 001: 2P                 -55.057746804 Ry
:3S 001: 3S                  -6.481070070 Ry

        2.ATOM      Co1                   5 CORE STATES
:1S 002: 1S                -556.759284154 Ry
:2S 002: 2S                 -64.915708928 Ry
:2PP002: 2P*                -56.145881876 Ry
:2P 002: 2P                 -55.057752075 Ry
:3S 002: 3S                  -6.481076382 Ry

        3.ATOM      Co1                   5 CORE STATES
:1S 003: 1S                -556.759278923 Ry
:2S 003: 2S                 -64.915703693 Ry
:2PP003: 2P*                -56.145876643 Ry
:2P 003: 2P                 -55.057746842 Ry
:3S 003: 3S                  -6.481070107 Ry

        4.ATOM      Co2                   5 CORE STATES
       CORE-FORCE in mRy/a.u. = |F|      Fx             Fy             Fz
:FCO004:   4.ATOM      0.014703510990     -0.014703509981     -0.000005446070      0.000000000000

:1S 004: 1S                -556.771689047 Ry
:2S 004: 2S                 -64.928210895 Ry
:2PP004: 2P*                -56.158362715 Ry
:2P 004: 2P                 -55.070235022 Ry
:3S 004: 3S                  -6.494269169 Ry

        5.ATOM      Tb1                  14 CORE STATES
:1S 005: 1S               -3806.808631355 Ry
:2S 005: 2S                -630.032852897 Ry
:2PP005: 2P*               -598.617017584 Ry
:2P 005: 2P                -543.745154422 Ry
:3S 005: 3S                -139.236532831 Ry
:3PP005: 3P*               -125.581525768 Ry
:3P 005: 3P                -114.266861657 Ry
:3DD005: 3D*                -90.755306420 Ry
:3D 005: 3D                 -88.287972324 Ry
:4S 005: 4S                 -27.124789415 Ry
:4PP005: 4P*                -21.776812164 Ry
:4P 005: 4P                 -19.245848752 Ry
:4DD005: 4D*                -10.441240300 Ry
:4D 005: 4D                  -9.982302509 Ry

        1.ATOM      Co1                   5 CORE STATES
:1S 001: 1S                -556.759484412 Ry
:2S 001: 2S                 -64.804032270 Ry
:2PP001: 2P*                -56.063336812 Ry
:2P 001: 2P                 -54.972609348 Ry
:3S 001: 3S                  -6.240222185 Ry

        2.ATOM      Co1                   5 CORE STATES
:1S 002: 1S                -556.759489681 Ry
:2S 002: 2S                 -64.804037542 Ry
:2PP002: 2P*                -56.063342083 Ry
:2P 002: 2P                 -54.972614619 Ry
:3S 002: 3S                  -6.240225749 Ry

        3.ATOM      Co1                   5 CORE STATES
:1S 003: 1S                -556.759484450 Ry
:2S 003: 2S                 -64.804032308 Ry
:2PP003: 2P*                -56.063336850 Ry
:2P 003: 2P                 -54.972609386 Ry
:3S 003: 3S                  -6.240222222 Ry

        4.ATOM      Co2                   5 CORE STATES
       CORE-FORCE in mRy/a.u. = |F|      Fx             Fy             Fz
:FCO004:   4.ATOM      0.013372301974     -0.013372300871     -0.000005429020      0.000000000000

:1S 004: 1S                -556.771892856 Ry
:2S 004: 2S                 -64.816524079 Ry
:2PP004: 2P*                -56.075810329 Ry
:2P 004: 2P                 -54.985084688 Ry
:3S 004: 3S                  -6.253318123 Ry

        5.ATOM      Tb1                  14 CORE STATES
:1S 005: 1S               -3806.808616444 Ry
:2S 005: 2S                -630.027319462 Ry
:2PP005: 2P*               -598.613784470 Ry
:2P 005: 2P                -543.740701935 Ry
:3S 005: 3S                -139.063680477 Ry
:3PP005: 3P*               -125.425696513 Ry
:3P 005: 3P                -114.087343855 Ry
:3DD005: 3D*                -90.626274019 Ry
:3D 005: 3D                 -88.152920673 Ry
:4S 005: 4S                 -26.731626289 Ry
:4PP005: 4P*                -21.384237594 Ry
:4P 005: 4P                 -18.858073600 Ry
:4DD005: 4D*                -10.055550044 Ry
:4D 005: 4D                  -9.598394838 Ry
:CINT001 Core Integral Atom   1 Up    5.99960901 Dn   5.999565 Total  11.99917441
:CINT002 Core Integral Atom   2 Up    5.99960879 Dn   5.999566 Total  11.99917455
:CINT003 Core Integral Atom   3 Up    5.99960901 Dn   5.999565 Total  11.99917441
:CINT004 Core Integral Atom   4 Up    5.99960861 Dn   5.999566 Total  11.99917431
:CINT005 Core Integral Atom   5 Up   22.99997624 Dn  22.999972 Total  45.99994860

       DENSITY AT NUCLEUS
        JATOM        VALENCE       SEMI-CORE          CORE           TOTAL
:RTO001:   1        8.625664        0.000000    17495.961944    17504.587609
:RTO002:   2        8.625603        0.000000    17495.962004    17504.587606
:RTO003:   3        8.625123        0.000000    17495.961944    17504.587067
:RTO004:   4        8.736612        0.000000    17495.942580    17504.679192
:RTO005:   5     1230.141875        0.000000  1219623.699687  1220853.841562

       HYPERFINE FIELDS FOR THOMSON RADIUS
:HFF001:           34.213           0.000        -362.596        -328.383 (KGAUSS)
:HFF002:           34.243           0.000        -362.703        -328.460 (KGAUSS)
:HFF003:           33.937           0.000        -362.596        -328.659 (KGAUSS)
:HFF004:          183.916           0.000        -363.493        -179.577 (KGAUSS)
:HFF005:         2434.723           0.000       -2547.920        -113.197 (KGAUSS)
:K-LIST:Reduced k-vector list    19745    2293
     
       CHARGES OF NEW CHARGE DENSITY
:NTO   : INTERSTITIAL      UP =     3.533932 DN =     3.849163 TOT =     7.383095
:NPC   : INTERSTITIAL      UP =    10.871437 DN =    10.161976 TOT =    21.033413
:NTO001: CHARGE SPHERE   1 UP =   13.978995 DN =   12.174120 TOT =   26.153116
:NTO002: CHARGE SPHERE   2 UP =   13.979069 DN =   12.174157 TOT =   26.153226
:NTO003: CHARGE SPHERE   3 UP =   13.978998 DN =   12.174001 TOT =   26.152999
:NTO004: CHARGE SPHERE   4 UP =   13.996818 DN =   12.440408 TOT =   26.437227
:NTO005: CHARGE SPHERE   5 UP =   34.013982 DN =   27.264949 TOT =   61.278932

:NEC01: NUCLEAR AND ELECTRONIC CHARGE    200.00000000   199.99582065 Plane Wave
     
       CHARGES OF OLD CHARGE DENSITY
:OTO   : INTERSTITIAL      UP =     4.000058 DN =     3.282715 TOT =     7.282773
:OPC   : INTERSTITIAL      UP =    14.090380 DN =     9.578846 TOT =    23.669226
:OTO001: CHARGE SPHERE   1 UP =   14.474701 DN =   11.521584 TOT =   25.996285
:OTO002: CHARGE SPHERE   2 UP =   14.474698 DN =   11.521582 TOT =   25.996280
:OTO003: CHARGE SPHERE   3 UP =   14.474701 DN =   11.521584 TOT =   25.996285
:OTO004: CHARGE SPHERE   4 UP =   14.477810 DN =   11.516740 TOT =   25.994549
:OTO005: CHARGE SPHERE   5 UP =   34.620218 DN =   28.119049 TOT =   62.739267

:NEC02: NUCLEAR AND ELECTRONIC CHARGE    200.00000000   199.99998808 Total

:VSOld: Total Rescaling   1.00000006
     
       CONVERGENCE TEST
:DTO001: DIFFERENCE SPHERE  1 UP =  0.6272522 DN =  0.5826456 TOT =  1.2098977
:DTO002: DIFFERENCE SPHERE  2 UP =  0.6271642 DN =  0.5827028 TOT =  1.2098670
:DTO003: DIFFERENCE SPHERE  3 UP =  0.6272848 DN =  0.5825164 TOT =  1.2098012
:DTO004: DIFFERENCE SPHERE  4 UP =  0.6170242 DN =  0.9096286 TOT =  1.5266529
:DTO005: DIFFERENCE SPHERE  5 UP =  0.3884986 DN =  1.4486255 TOT =  1.8371241

:DIS  :  CHARGE DISTANCE      (  1.4486255 for atom    5 spin 2)      2.8399986
 
******************************************************
* Multisecant Mixing Release 10.8.9                  *
* Standard Mode with step bound                      *
* Multisecant MSR1 Algorithm                         *
* Regularization       2.000E-04                     *
* Minimum Greed        1.000E-03                     *
* Max Number of Memory Steps    8                    *
******************************************************
 

:FULLRMS/Atom   1.3273597581
:PLANE:  PW /ATOM     1.12494 DISTAN   5.38E-01 %  4.78E+01
:CHARG:  CLM/ATOM   260.61572 DISTAN   7.46E-01 %  2.86E-01

Step History
        Dmix         Dmixt        Red     Pred      Step      Lambda    MagAbs    Beta
  1   3.5000E-01   3.5000E-01  1.00E+00  1.00E+00  1.00E-01  1.00E+00  1.14E-01  1.00E+00
:NOTE :  :INFO: Pratt in use
:TRUST:  Step  1.0E-01 Charge  3.3E-02 (e) CTO  2.2E-01 (e) PW  2.0E-01 (e)
:DIRP : |PRAT|= 4.839E-03 |PRATT|= 1.902E+00 ANGLE=   0.0 DEGREES
:DIRQ : |PRAT|= 6.710E-03 |PRATT|= 2.637E+00 ANGLE=   0.0 DEGREES
:DIRT : |PRAT|= 8.272E-03 |PRATT|= 3.251E+00 ANGLE=   0.0 DEGREES
  
:INFO: Pseudo Compensation for mesh of   64
  
:INFO: Pseudo Compensation Rescaling     9.99133E-01
  
:INFO: Pseudo Compensation Rescaling     1.00301E+00
  
:MIX  :  PRATT  REGULARIZATION:  2.00E-04 GREED: 0.00254                 
     
       CHARGES OF MIXED CHARGE DENSITY
:CTO   : INTERSTITIAL      UP =     3.998877 DN =     3.284162 TOT =     7.283039
:CPC   : INTERSTITIAL      UP =    12.414652 DN =     9.408297 TOT =    21.822949
:CTO001: CHARGE SPHERE   1 UP =   14.473441 DN =   11.523245 TOT =   25.996686
:CTO002: CHARGE SPHERE   2 UP =   14.473438 DN =   11.523243 TOT =   25.996681
:CTO003: CHARGE SPHERE   3 UP =   14.473441 DN =   11.523244 TOT =   25.996685
:CTO004: CHARGE SPHERE   4 UP =   14.476587 DN =   11.519090 TOT =   25.995677
:CTO005: CHARGE SPHERE   5 UP =   34.618677 DN =   28.116878 TOT =   62.735555

       SPIN MAGNETIC MOMENTS OF MIXED CHARGE DENSITY
:MMINT:  MAGNETIC MOMENT IN INTERSTITIAL  =    0.71472
:MMI001: MAGNETIC MOMENT IN SPHERE   1    =    2.95020
:MMI002: MAGNETIC MOMENT IN SPHERE   2    =    2.95019
:MMI003: MAGNETIC MOMENT IN SPHERE   3    =    2.95020
:MMI004: MAGNETIC MOMENT IN SPHERE   4    =    2.95750
:MMI005: MAGNETIC MOMENT IN SPHERE   5    =    6.50180
:MMTOT:  SPIN MAGNETIC MOMENT IN CELL     =   21.98210

:NEC03: NUCLEAR AND ELECTRONIC CHARGE    200.00000000   200.00000000

PW CHANGE     H    K    L      Current       Change    Residue
:PUP001:      0    0    0  2.87735646E-02 -2.940E-03 -6.446E-03
:PUP002:     -1    0    0  9.58747238E-04  3.412E-03  4.447E-03
:PUP003:     -1    1    0  9.58747242E-04  3.412E-03  4.447E-03
:PUP004:      0   -1    0  9.58722355E-04  3.412E-03  4.446E-03
:PUP005:      0    0   -1  5.16473608E-03  2.151E-03  3.351E-03
:PUP006:     -1    0   -1  6.25720469E-03  8.252E-04  1.484E-03
:PUP007:     -1    0    1  6.25720150E-03  8.252E-04  1.483E-03
:PUP008:     -1    1   -1  6.25719384E-03  8.252E-04  1.484E-03
:PUP009:     -1    1    1  6.25719074E-03  8.252E-04  1.482E-03
:PUP010:      0   -1   -1  6.25722267E-03  8.253E-04  1.484E-03
:PUP011:      0   -1    1  6.25722265E-03  8.253E-04  1.484E-03
:PUP012:     -2    1    0  6.28757826E-03 -2.415E-04 -9.406E-05
  
:PDN001:      0    0    0  2.22503807E-02 -2.964E-04  2.029E-03
:PDN002:     -1    0    0  1.82912403E-03  3.310E-03  3.922E-03
:PDN003:     -1    1    0  1.82909696E-03  3.310E-03  3.922E-03
:PDN004:      0   -1    0  1.82917054E-03  3.310E-03  3.922E-03
:PDN005:      0    0   -1  4.84402262E-03  2.757E-03  4.371E-03
:PDN006:     -1    0   -1  5.45731838E-03  1.840E-03  3.119E-03
:PDN007:     -1    0    1  5.45731876E-03  1.840E-03  3.120E-03
:PDN008:     -1    1   -1  5.45733406E-03  1.840E-03  3.120E-03
:PDN009:     -1    1    1  5.45733443E-03  1.840E-03  3.120E-03
:PDN010:      0   -1   -1  5.45727734E-03  1.840E-03  3.119E-03
:PDN011:      0   -1    1  5.45727760E-03  1.840E-03  3.119E-03
:PDN012:     -2    1    0  5.32340797E-03  1.185E-03  2.126E-03

:ENE  : ********** TOTAL ENERGY IN Ry =       -37373.14988426

:FOR001:   1.ATOM          0.000          0.000          0.000          0.000 partial forces
:FOR002:   2.ATOM          0.000          0.000          0.000          0.000 partial forces
:FOR003:   3.ATOM          0.000          0.000          0.000          0.000 partial forces
:FOR004:   4.ATOM          0.026          0.026          0.000          0.000 partial forces
:FOR005:   5.ATOM          0.000          0.000          0.000          0.000 partial forces
       TOTAL FORCE WITH RESPECT TO THE GLOBAL COORDINATE SYSTEM:
:FGL001:   1.ATOM                 0.000000000     0.000000000     0.000000000 partial forces
:FGL002:   2.ATOM                 0.000000000     0.000000000     0.000000000 partial forces
:FGL003:   3.ATOM                 0.000000000     0.000000000     0.000000000 partial forces
:FGL004:   4.ATOM                 0.030339223     0.015179756     0.000000000 partial forces
:FGL005:   5.ATOM                 0.000000000     0.000000000     0.000000000 partial forces
 Euler-Maclaurian Coulomb
 Consistent 3/8+Simpson combinations at start/end
 New Mode for Coulomb Integral
 Extension of core to zero
 LDM version in phi
 Fifth-order quadrature in outwin
 Lebedev-Laikov Grid in lapw0


            ---------
:ITE002:  2. ITERATION
            ---------

:NATO :    5 INDEPENDENT AND    6 TOTAL ATOMS IN UNITCELL
       SUBSTANCE: blebleble                                s-o calc. M||  0.10

       LATTICE                      = H   
:LAT  : LATTICE CONSTANTS=  9.34658  9.34658  7.54001
:VOL  : UNIT CELL VOLUME =     570.43781
:POT  : POTENTIAL OPTION EX_PBE EC_PBE VX_PBE VC_PBE
       MODE OF CALCULATION IS       = RELA
       SPINPOLARIZED CALCULATION
:IFFT  : FFT-parameters:   96   96   80 Factor: 2.00


   CONVERGENCE PARAMETER FOR PSEUDOCHARGE: NCON=  9
   MAXIMAL VALUE OF RMT(JATOM)*ABSK(NKK) : RK  =39.99508


:VKCOUL :  VK-COUL convergence: 0.241E-09
 Lebedev grid of          350
 :rho_min:   2.0000000000000000E-008   1.0000000000000001E-009
:VCOUL001 ATOMNUMBER=  1 Co1     VCOUL-ZERO =  0.54509E+00
:EFG001:                        EFG         =    -0.12847   *10**21  V / m**2
                               V20  TOT/SRF=     0.01671     0.03227
                               V22  TOT/SRF=    -0.05939    -0.12355
                               V22M TOT/SRF=     0.10292     0.21404
                               V21  TOT/SRF=     0.00000     0.00000
                               V21M TOT/SRF=     0.00000     0.00000

             -0.06903    0.10292    0.00000       -0.12847    0.00000    0.00000
              0.10292    0.04974    0.00000        0.00000    0.10918    0.00000
              0.00000    0.00000    0.01930        0.00000    0.00000    0.01930

         MAIN DIRECTIONS OF THE EFG   1.0000  0.5775  0.0000
                                     -0.5775  1.0000  0.0000
                                     -0.0000 -0.0000  1.0000
:ANG001:  ANGLE WITH OLD X-AXIS =        30.0

:ETA001:                         ASYMM. ETA =     0.69958


:VCOUL002 ATOMNUMBER=  2 Co1     VCOUL-ZERO =  0.54508E+00
:EFG002:                        EFG         =    -0.12847   *10**21  V / m**2
                               V20  TOT/SRF=     0.01673     0.03226
                               V22  TOT/SRF=     0.11881     0.24715
                               V22M TOT/SRF=     0.00005     0.00000
                               V21  TOT/SRF=     0.00000     0.00000
                               V21M TOT/SRF=     0.00000     0.00000

              0.10915    0.00005    0.00000        0.10915    0.00000    0.00000
              0.00005   -0.12847    0.00000        0.00000   -0.12847    0.00000
              0.00000    0.00000    0.01931        0.00000    0.00000    0.01931

         MAIN DIRECTIONS OF THE EFG   1.0000 -0.0002  0.0000
                                      0.0002  1.0000  0.0000
                                      0.0000  0.0000  1.0000
:ANG002:  ANGLE WITH OLD X-AXIS =         0.0

:ETA002:                         ASYMM. ETA =     0.69932


:VCOUL003 ATOMNUMBER=  3 Co1     VCOUL-ZERO =  0.54509E+00
:EFG003:                        EFG         =    -0.12845   *10**21  V / m**2
                               V20  TOT/SRF=     0.01673     0.03227
                               V22  TOT/SRF=    -0.05942    -0.12355
                               V22M TOT/SRF=    -0.10287    -0.21404
                               V21  TOT/SRF=     0.00000     0.00000
                               V21M TOT/SRF=     0.00000     0.00000

             -0.06908   -0.10287    0.00000       -0.12845    0.00000    0.00000
             -0.10287    0.04976    0.00000        0.00000    0.10914    0.00000
              0.00000    0.00000    0.01932        0.00000    0.00000    0.01932

         MAIN DIRECTIONS OF THE EFG   1.0000 -0.5772  0.0000
                                      0.5772  1.0000  0.0000
                                     -0.0000 -0.0000  1.0000
:ANG003:  ANGLE WITH OLD X-AXIS =        30.0

:ETA003:                         ASYMM. ETA =     0.69922


:VCOUL004 ATOMNUMBER=  4 Co2     VCOUL-ZERO =  0.53008E+00
:EFG004:                        EFG         =     0.06214   *10**21  V / m**2
                               V20  TOT/SRF=     0.05381     0.14365
                               V22  TOT/SRF=    -0.00001    -0.00000
                               V22M TOT/SRF=     0.00001    -0.00000
                               V21  TOT/SRF=     0.00000     0.00000
                               V21M TOT/SRF=     0.00000     0.00000

             -0.03108    0.00001    0.00000       -0.03108    0.00000    0.00000
              0.00001   -0.03106    0.00000        0.00000   -0.03105    0.00000
              0.00000    0.00000    0.06214        0.00000    0.00000    0.06214

         MAIN DIRECTIONS OF THE EFG   1.0000  0.3102  0.0000
                                     -0.3102  1.0000  0.0000
                                     -0.0000 -0.0000  1.0000
:ANG004:  ANGLE WITH OLD X-AXIS =        17.2

:ETA004:                         ASYMM. ETA =     0.00046


:VCOUL005 ATOMNUMBER=  5 Tb1     VCOUL-ZERO =  0.46502E+00
:EFG005:                        EFG         =    -0.03569   *10**21  V / m**2
                               V20  TOT/SRF=    -0.03091    -0.10068
                               V22  TOT/SRF=     0.00016    -0.00000
                               V22M TOT/SRF=    -0.00008    -0.00000
                               V21  TOT/SRF=     0.00000     0.00000
                               V21M TOT/SRF=     0.00000     0.00000

              0.01800   -0.00008    0.00000        0.01802    0.00000    0.00000
             -0.00008    0.01769    0.00000        0.00000    0.01767    0.00000
              0.00000    0.00000   -0.03569        0.00000    0.00000   -0.03569

         MAIN DIRECTIONS OF THE EFG   1.0000  0.2301  0.0000
                                     -0.2301  1.0000  0.0000
                                      0.0000  0.0000  1.0000
:ANG005:  ANGLE WITH OLD X-AXIS =        13.0

:ETA005:                         ASYMM. ETA =     0.00987


     HELLMANN-FEYNMAN-FORCE IN mRy/a.u. = |F|  Fx       Fy             Fz
:FHF001:   1.ATOM      0.000000000000      0.000000000000      0.000000000000      0.000000000000

     HELLMANN-FEYNMAN-FORCE IN mRy/a.u. = |F|  Fx       Fy             Fz
:FHF002:   2.ATOM      0.000000000000      0.000000000000      0.000000000000      0.000000000000

     HELLMANN-FEYNMAN-FORCE IN mRy/a.u. = |F|  Fx       Fy             Fz
:FHF003:   3.ATOM      0.000000000000      0.000000000000      0.000000000000      0.000000000000

     HELLMANN-FEYNMAN-FORCE IN mRy/a.u. = |F|  Fx       Fy             Fz
:FHF004:   4.ATOM      0.039758983857      0.039756194167      0.000470980498      0.000000000000

     HELLMANN-FEYNMAN-FORCE IN mRy/a.u. = |F|  Fx       Fy             Fz
:FHF005:   5.ATOM      0.000000000000      0.000000000000      0.000000000000      0.000000000000

:FIT001: LUSE= 13 SIGMA OF V-XC FIT FOR ATOM  1  0.7044857E-03
:FIT001: LUSE= 13 SIGMA OF V-XC FIT FOR ATOM  1  0.9953773E-03
:FIT002: LUSE= 13 SIGMA OF V-XC FIT FOR ATOM  2  0.5559250E-03
:FIT002: LUSE= 13 SIGMA OF V-XC FIT FOR ATOM  2  0.1020389E-02
:FIT003: LUSE= 13 SIGMA OF V-XC FIT FOR ATOM  3  0.7044842E-03
:FIT003: LUSE= 13 SIGMA OF V-XC FIT FOR ATOM  3  0.9953785E-03
:FIT004: LUSE= 13 SIGMA OF V-XC FIT FOR ATOM  4  0.7003398E-03
:FIT004: LUSE= 13 SIGMA OF V-XC FIT FOR ATOM  4  0.8048007E-03
:FIT005: LUSE= 13 SIGMA OF V-XC FIT FOR ATOM  5  0.3588184E-03
:FIT005: LUSE= 13 SIGMA OF V-XC FIT FOR ATOM  5  0.5524803E-03
:DEN  : DENSITY INTEGRAL  =        -14938.54809503   (Ry)
       ELS_POTENTIAL_AT Z=0 and Z=0.5:  -0.83333  -0.40673
       ELS_POTENTIAL_AT Y=0 and Y=0.5:  -0.47718  -0.33470
:VZERO:v0,v0c,v0x  -1.73949  -0.83333  -0.90616 v5,v5c,v5x  -1.23704  -0.40673  -0.83031
:VZERY:v0,v0c,v0x  -1.32372  -0.47718  -0.84654 v5,v5c,v5x  -1.21811  -0.33470  -0.88341
:VZERX:v0,v0c,v0x  -1.32372  -0.47717  -0.84655 v5,v5c,v5x  -1.21808  -0.33468  -0.88341
:LMAX-WF:   10   Non-Spherical LMAX:   6

          ATOMIC SPHERE DEPENDENT PARAMETERS FOR ATOM  Co1       
:e__0001: OVERALL ENERGY PARAMETER IS    0.4036
          OVERALL BASIS SET ON ATOM IS LAPW
:E1_0001: E( 1)=    0.4036
             APW+lo
:E1_0001: E( 1)=   -3.7902   E(BOTTOM)=   -3.825   E(TOP)=   -3.755  1  2   177
             LOCAL ORBITAL
:E2_0001: E( 2)=    0.3778   E(BOTTOM)=    0.140   E(TOP)=    0.616  0  1   128
             APW+lo
:E0_0001: E( 0)=    0.4036
             APW+lo

          ATOMIC SPHERE DEPENDENT PARAMETERS FOR ATOM  Co1       
:e__0002: OVERALL ENERGY PARAMETER IS    0.4036
          OVERALL BASIS SET ON ATOM IS LAPW
:E1_0002: E( 1)=    0.4036
             APW+lo
:E1_0002: E( 1)=   -3.7902   E(BOTTOM)=   -3.825   E(TOP)=   -3.755  1  2   176
             LOCAL ORBITAL
:E2_0002: E( 2)=    0.3778   E(BOTTOM)=    0.140   E(TOP)=    0.616  0  1   129
             APW+lo
:E0_0002: E( 0)=    0.4036
             APW+lo

          ATOMIC SPHERE DEPENDENT PARAMETERS FOR ATOM  Co1       
:e__0003: OVERALL ENERGY PARAMETER IS    0.4036
          OVERALL BASIS SET ON ATOM IS LAPW
:E1_0003: E( 1)=    0.4036
             APW+lo
:E1_0003: E( 1)=   -3.7902   E(BOTTOM)=   -3.825   E(TOP)=   -3.755  1  2   176
             LOCAL ORBITAL
:E2_0003: E( 2)=    0.3778   E(BOTTOM)=    0.140   E(TOP)=    0.616  0  1   126
             APW+lo
:E0_0003: E( 0)=    0.4036
             APW+lo

          ATOMIC SPHERE DEPENDENT PARAMETERS FOR ATOM  Co2       
:e__0004: OVERALL ENERGY PARAMETER IS    0.4036
          OVERALL BASIS SET ON ATOM IS LAPW
:E1_0004: E( 1)=    0.4036
             APW+lo
:E1_0004: E( 1)=   -3.8026   E(BOTTOM)=   -3.838   E(TOP)=   -3.767  1  2   174
             LOCAL ORBITAL
:E2_0004: E( 2)=    0.3651   E(BOTTOM)=    0.127   E(TOP)=    0.603  0  1   122
             APW+lo
:E0_0004: E( 0)=    0.4036
             APW+lo

          ATOMIC SPHERE DEPENDENT PARAMETERS FOR ATOM  Tb1       
:e__0005: OVERALL ENERGY PARAMETER IS    0.4036
          OVERALL BASIS SET ON ATOM IS LAPW
:E0_0005: E( 0)=    0.4036
             APW+lo
:E0_0005: E( 0)=   -2.6567   E(BOTTOM)=   -2.852   E(TOP)=   -2.461  4  5   187
             LOCAL ORBITAL
:E1_0005: E( 1)=    0.8036
             APW+lo
:E1_0005: E( 1)=   -0.9398   E(BOTTOM)=   -1.373   E(TOP)=   -0.507  3  4   175
             LOCAL ORBITAL
:E3_0005: E( 3)=    0.4450   E(BOTTOM)=    0.382   E(TOP)=    0.508  0  1   104
             APW+lo
:E2_0005: E( 2)=    0.4037   E(BOTTOM)=    0.404   E(TOP)= -520.000  2 -1    75
             APW+lo

       K=  0.031250  0.031250  0.029412            1
:RKM  : MATRIX SIZE   653LOs:  80  RKM= 9.00  WEIGHT= 2.00  PGR:    
       EIGENVALUES ARE:
:EIG00001:      -3.8047081   -3.7989340   -3.7972509   -3.7945661   -3.7945317
:EIG00006:      -3.7942272   -3.7942081   -3.7843633   -3.7842886   -3.7830653
:EIG00011:      -3.7830285   -3.7790933   -3.7761623   -3.7761036   -3.7728740
:EIG00016:      -2.6216977   -0.9211223   -0.9210381   -0.8952906   -0.0065965
:EIG00021:       0.2035312    0.2831647    0.2862861    0.2866405    0.2896603
:EIG00026:       0.2908522    0.3077218    0.3082677    0.3201556    0.3236359
:EIG00031:       0.3550142    0.3556573    0.3913673    0.3920539    0.4162537
:EIG00036:       0.4281897    0.4284686    0.4455468    0.4531801    0.4550104
:EIG00041:       0.4550692    0.4563854    0.4568690    0.4572104    0.4574082
:EIG00046:       0.4605407    0.4610886    0.4656989    0.4658476    0.5176137

:EIG00051:       0.5204419    0.5291975    0.6190629    0.6773264    0.6795028
:EIG00056:       0.7043803    0.7718009    0.7976740    0.8135673    0.9894473
:EIG00061:       0.9923121    1.1828495    1.2539031    1.2580942    1.3383655
:EIG00066:       1.3676635    1.4100457    1.4172118    1.4559152    1.4830704
:EIG00071:       1.4973336    1.6307616    1.6452352    1.7391971    1.7409188
:EIG00076:       1.8933825    1.9047036    2.1036913    2.1104101    2.2543807
:EIG00081:       2.3054501    2.3202030    2.3252161    2.3669054    2.3802868
:EIG00086:       2.4030269    2.4432208    2.4670441    2.5120369    2.5127500
:EIG00091:       2.6746699    2.7773248    2.7859571    2.8472711    2.9114582
:EIG00096:       2.9492761    2.9643267    2.9695679    2.9849248    3.0082969

:EIG00101:       3.0298729    3.0497512    3.1404975    3.1538077    3.2219630
:EIG00106:       3.2495627    3.2686674    3.2790705    3.3618594    3.3646061
:EIG00111:       3.4302375    3.4905939    3.5082586    3.5695759    3.5755960
:EIG00116:       3.6094809    3.6623477    3.7201820    3.7396906    3.7847238
:EIG00121:       3.7889241    3.8404436    3.9981147    4.0347443    4.0628589
:EIG00126:       4.0643587    4.1148249    4.1624799    4.2098907    4.2578412
:EIG00131:       4.3306969    4.3366855    4.3912488    4.4156279    4.4238537
:EIG00136:       4.4449302    4.4531119    4.4654717    4.5825589    4.5878542
:EIG00141:       4.6011765    4.6118648    4.6566355    4.6814506    4.7283548
:EIG00146:       4.7361963    4.7817012    4.7999888    4.8143176    4.8240029

:EIG00151:       4.8375726    4.8910215    4.9012528    4.9513390    4.9640688
:EIG00156:       5.0058954    5.0380978    5.0492177    5.1005742    5.1626933
:EIG00161:       5.1707119    5.1952267    5.2273850    5.2971721    5.3411322
:EIG00166:       5.3508912    5.3961419    5.4607576    5.4666631    5.4716422
       ********************************************************

:KPT   :      NUMBER OF K-POINTS:    2176
:LMAX-WF:   10   Non-Spherical LMAX:   6

          ATOMIC SPHERE DEPENDENT PARAMETERS FOR ATOM  Co1       
:e__0001: OVERALL ENERGY PARAMETER IS    0.4036
          OVERALL BASIS SET ON ATOM IS LAPW
:E1_0001: E( 1)=    0.4036
             APW+lo
:E1_0001: E( 1)=   -3.5558   E(BOTTOM)=   -3.594   E(TOP)=   -3.518  1  2   203
             LOCAL ORBITAL
:E2_0001: E( 2)=    0.5864   E(BOTTOM)=    0.322   E(TOP)=    0.851  0  1   124
             APW+lo
:E0_0001: E( 0)=    0.4036
             APW+lo

          ATOMIC SPHERE DEPENDENT PARAMETERS FOR ATOM  Co1       
:e__0002: OVERALL ENERGY PARAMETER IS    0.4036
          OVERALL BASIS SET ON ATOM IS LAPW
:E1_0002: E( 1)=    0.4036
             APW+lo
:E1_0002: E( 1)=   -3.5558   E(BOTTOM)=   -3.594   E(TOP)=   -3.518  1  2   205
             LOCAL ORBITAL
:E2_0002: E( 2)=    0.5864   E(BOTTOM)=    0.322   E(TOP)=    0.851  0  1   126
             APW+lo
:E0_0002: E( 0)=    0.4036
             APW+lo

          ATOMIC SPHERE DEPENDENT PARAMETERS FOR ATOM  Co1       
:e__0003: OVERALL ENERGY PARAMETER IS    0.4036
          OVERALL BASIS SET ON ATOM IS LAPW
:E1_0003: E( 1)=    0.4036
             APW+lo
:E1_0003: E( 1)=   -3.5558   E(BOTTOM)=   -3.594   E(TOP)=   -3.518  1  2   200
             LOCAL ORBITAL
:E2_0003: E( 2)=    0.5864   E(BOTTOM)=    0.322   E(TOP)=    0.851  0  1   127
             APW+lo
:E0_0003: E( 0)=    0.4036
             APW+lo

          ATOMIC SPHERE DEPENDENT PARAMETERS FOR ATOM  Co2       
:e__0004: OVERALL ENERGY PARAMETER IS    0.4036
          OVERALL BASIS SET ON ATOM IS LAPW
:E1_0004: E( 1)=    0.4036
             APW+lo
:E1_0004: E( 1)=   -3.5681   E(BOTTOM)=   -3.606   E(TOP)=   -3.530  1  2   194
             LOCAL ORBITAL
:E2_0004: E( 2)=    0.5739   E(BOTTOM)=    0.309   E(TOP)=    0.839  0  1   130
             APW+lo
:E0_0004: E( 0)=    0.4036
             APW+lo

          ATOMIC SPHERE DEPENDENT PARAMETERS FOR ATOM  Tb1       
:e__0005: OVERALL ENERGY PARAMETER IS    0.4036
          OVERALL BASIS SET ON ATOM IS LAPW
:E0_0005: E( 0)=    0.4036
             APW+lo
:E0_0005: E( 0)=   -2.4476   E(BOTTOM)=   -2.660   E(TOP)=   -2.235  4  5   203
             LOCAL ORBITAL
:E1_0005: E( 1)=    0.8036
             APW+lo
:E1_0005: E( 1)=   -0.7712   E(BOTTOM)=   -1.230   E(TOP)=   -0.312  3  4   187
             LOCAL ORBITAL
:E3_0005: E( 3)=    0.7862   E(BOTTOM)=    0.704   E(TOP)=    0.868  0  1   135
             APW+lo
:E2_0005: E( 2)=    0.5058   E(BOTTOM)=    0.506   E(TOP)= -520.000  2 -1    86
             APW+lo

       K=  0.031250  0.031250  0.029412            1
:RKM  : MATRIX SIZE   653LOs:  80  RKM= 9.00  WEIGHT= 2.00  PGR:    
       EIGENVALUES ARE:
:EIG00001:      -3.5707773   -3.5648348   -3.5625859   -3.5594972   -3.5594630
:EIG00006:      -3.5592069   -3.5591834   -3.5491740   -3.5490951   -3.5479079
:EIG00011:      -3.5478625   -3.5432290   -3.5405435   -3.5404756   -3.5371164
:EIG00016:      -2.4107785   -0.7609284   -0.7608091   -0.7315897    0.0582898
:EIG00021:       0.3530486    0.4083301    0.4167493    0.4497507    0.4612910
:EIG00026:       0.4614611    0.4660914    0.4696886    0.4927976    0.4931844
:EIG00031:       0.5428555    0.5435044    0.5783398    0.5796441    0.6243025
:EIG00036:       0.6349081    0.6352919    0.6578069    0.6578626    0.6699879
:EIG00041:       0.6794166    0.6796383    0.7054432    0.7318764    0.7459994
:EIG00046:       0.7535904    0.7555719    0.7829505    0.7861767    0.7958296

:EIG00051:       0.8027416    0.8028573    0.8203032    0.8272951    0.8362289
:EIG00056:       0.8640065    0.8805924    0.8959541    0.9300084    1.0986109
:EIG00061:       1.1013386    1.3036616    1.3642192    1.3695348    1.4391466
:EIG00066:       1.4616266    1.5041633    1.5061683    1.5329261    1.5860724
:EIG00071:       1.5920306    1.7123925    1.7317506    1.8005142    1.8085647
:EIG00076:       1.9693042    1.9802549    2.1942762    2.1999543    2.3241860
:EIG00081:       2.3507237    2.3649526    2.3800138    2.4280053    2.4457301
:EIG00086:       2.4676828    2.5096013    2.5349652    2.5807289    2.5813412
:EIG00091:       2.7185815    2.8327793    2.8434471    2.8876268    2.9795078
:EIG00096:       3.0149314    3.0473778    3.0572330    3.0653257    3.0690245

:EIG00101:       3.1018937    3.1100674    3.1840379    3.1979944    3.2874301
:EIG00106:       3.3110962    3.3141305    3.3323474    3.4284013    3.4312348
:EIG00111:       3.4918410    3.5488202    3.5757826    3.6294678    3.6331617
:EIG00116:       3.6656560    3.7227834    3.7789204    3.8046618    3.8510079
:EIG00121:       3.8518473    3.9132336    4.0565239    4.1054917    4.1312693
:EIG00126:       4.1331773    4.1668497    4.2197406    4.2762586    4.3386189
:EIG00131:       4.3913225    4.3978682    4.4495874    4.4759803    4.4813722
:EIG00136:       4.5092525    4.5272756    4.5313643    4.6480080    4.6510692
:EIG00141:       4.6585217    4.6704445    4.7157833    4.7419125    4.7758086
:EIG00146:       4.7833384    4.8300313    4.8525551    4.8607828    4.8754159

:EIG00151:       4.8865479    4.9447190    4.9585299    5.0111314    5.0238369
:EIG00156:       5.0693121    5.0892295    5.1014634    5.1697792    5.2231554
:EIG00161:       5.2329175    5.2617293    5.2887621    5.3597589    5.4150286
:EIG00166:       5.4268044    5.4561106    5.5172091    5.5374248    5.5478418
       ********************************************************

:KPT   :      NUMBER OF K-POINTS:    2176
  Potential not averaged when calculating dV/dr
  45.0 -30.0 angle (M,z), angle (M,x) deg

        SPIN-ORBIT EIGENVALUES:
     K=  0.031250  0.031250  0.029412            1
      MATRIX SIZE=  340   WEIGHT= 2.00
     EIGENVALUES ARE:
          -3.8541702   -3.8537173   -3.8451984   -3.8423095   -3.8368966
          -3.8162520   -3.8151893   -3.8057421   -3.8004298   -3.7976545
          -3.7508943   -3.7501668   -3.7413537   -3.7380780   -3.7329437
          -3.5866936   -3.5859490   -3.5780002   -3.5749068   -3.5685360
          -3.5496039   -3.5480442   -3.5391464   -3.5330445   -3.5299598
          -3.5163447   -3.5146897   -3.5067609   -3.5028005   -3.4976413
          -2.6216977   -2.4107785   -1.0832850   -1.0286882   -0.8166894
          -0.7392664   -0.6933344   -0.6573040   -0.0065864    0.0583023

           0.2034592    0.2829788    0.2860884    0.2865429    0.2894701
           0.2909096    0.3069295    0.3087759    0.3200355    0.3234526
           0.3529115    0.3537789    0.3563956    0.3905389    0.3928085
           0.4081849    0.4154332    0.4165295    0.4259310    0.4272689
           0.4302241    0.4372096    0.4466113    0.4491461    0.4512681
           0.4544401    0.4565626    0.4573540    0.4601547    0.4614896
           0.4623366    0.4655238    0.4661154    0.4666168    0.4698843
           0.4710972    0.4830411    0.4919761    0.4941860    0.5177292

           0.5208952    0.5295386    0.5415551    0.5447102    0.5776618
           0.5803880    0.6191938    0.6238079    0.6337370    0.6371070
           0.6547894    0.6610873    0.6696722    0.6768014    0.6794667
           0.6797137    0.6808132    0.7043362    0.7054318    0.7307927
           0.7458161    0.7534953    0.7554769    0.7716988    0.7759033
           0.7865516    0.7905954    0.7980265    0.8011002    0.8145183
           0.8158606    0.8273078    0.8312958    0.8369118    0.8657354
           0.8813060    0.8973815    0.9299375    0.9873539    0.9941627

           1.0965819    1.1028384    1.1829085    1.2503715    1.2613710
           1.3036834    1.3383177    1.3615945    1.3679096    1.3724194
           1.4099949    1.4166205    1.4392437    1.4550935    1.4617198
           1.4828706    1.4965354    1.5041627    1.5061381    1.5339936
           1.5858681    1.5922549    1.6309045    1.6454454    1.7122097
           1.7311098    1.7408402    1.7418568    1.8006115    1.8072265
           1.8935657
       ********************************************************
:GAP (global)   :    0.0    Ry =     0.0   eV (metal)
:GAP (this spin):    0.0    Ry =     0.0   eV (metal)
         Bandranges (emin - emax) and occupancy:
:BAN00087:  87    0.539382    0.623540  1.00000000
:BAN00088:  88    0.540865    0.632156  1.00000000
:BAN00089:  89    0.564899    0.638760  1.00000000
:BAN00090:  90    0.575784    0.646673  1.00000000
:BAN00091:  91    0.578116    0.655116  0.99865742
:BAN00092:  92    0.585470    0.661301  0.97173282
:BAN00093:  93    0.614383    0.669832  0.93051494
:BAN00094:  94    0.619441    0.677424  0.78996124
:BAN00095:  95    0.626365    0.679467  0.27755412
:BAN00096:  96    0.644516    0.680331  0.03134411
:BAN00097:  97    0.651848    0.686047  0.00023528
:BAN00098:  98    0.664479    0.704336  0.00000000
:BAN00099:  99    0.671803    0.726633  0.00000000
:BAN00100: 100    0.678612    0.733805  0.00000000
:BAN00101: 101    0.685589    0.747396  0.00000000
:BAN00102: 102    0.696586    0.771466  0.00000000
        Energy to separate low and high energystates:   -0.05796


:NOE  : NUMBER OF ELECTRONS          =   94.000

:FER  : F E R M I - ENERGY(TETRAH.M.)=   0.6543081877
:GMA  : POTENTIAL AND CHARGE CUT-OFF  16.00 Ry**.5
 
:POS001: ATOM   -1 X,Y,Z = 0.50000 0.00000 0.50000  MULT= 1  ZZ= 27.000  Co1
 
       LMMAX 16
       LM=   0 0  2 0  2 2 -2 2  4 0  4 2 -4 2  4 4 -4 4  6 0  6 2 -6 2  6 4 -6 4  6 6 -6 6
 
:CHA001: TOTAL VALENCE CHARGE INSIDE SPHERE   1 =   7.9796    (RMT=  2.3000 )
:PCS001: PARTIAL CHARGES SPHERE =  1 S,P,D,F,PX,PY,PZ,D-Z2,D-X2Y2,D-XY,D-XZ,D-YZ
:QTL001: 0.2407 3.2114 4.5096 0.0131 1.0558 1.0807 1.0753 0.8957 0.8980 0.9068 0.9088 0.9005
        Q-s-low E-s-low   Q-p-low E-p-low   Q-d-low E-d-low   Q-f-low E-f-low
:EPL001:  0.0000 10.0000    2.9952 -3.7825    0.0000 10.0000    0.0000 10.0000
        Q-s-hi  E-s-hi    Q-p-hi  E-p-hi    Q-d-hi  E-d-hi    Q-f-hi  E-f-hi
:EPH001:  0.2401  0.2530    0.2159  0.3980    4.5090  0.3990    0.0130  0.3927
 
                      QXX         QXY         QYY         QZZ       UP TO R
:VZZ001:             1.67411    -2.50226    -1.21803    -0.45611       2.300
 
:POS002: ATOM   -2 X,Y,Z = 0.00000 0.50000 0.50000  MULT= 1  ZZ= 27.000  Co1
 
       LMMAX 16
       LM=   0 0  2 0  2 2 -2 2  4 0  4 2 -4 2  4 4 -4 4  6 0  6 2 -6 2  6 4 -6 4  6 6 -6 6
 
:CHA002: TOTAL VALENCE CHARGE INSIDE SPHERE   2 =   7.9797    (RMT=  2.3000 )
:PCS002: PARTIAL CHARGES SPHERE =  2 S,P,D,F,PX,PY,PZ,D-Z2,D-X2Y2,D-XY,D-XZ,D-YZ
:QTL002: 0.2407 3.2115 4.5098 0.0133 1.0929 1.0437 1.0750 0.8953 0.9109 0.8943 0.8963 0.9127
        Q-s-low E-s-low   Q-p-low E-p-low   Q-d-low E-d-low   Q-f-low E-f-low
:EPL002:  0.0000 10.0000    2.9952 -3.7825    0.0000 10.0000    0.0000 10.0000
        Q-s-hi  E-s-hi    Q-p-hi  E-p-hi    Q-d-hi  E-d-hi    Q-f-hi  E-f-hi
:EPH002:  0.2398  0.2530    0.2162  0.3980    4.5091  0.3990    0.0132  0.3932
 
                      QXX         QXY         QYY         QZZ       UP TO R
:VZZ002:            -2.65606    -0.00013     3.11520    -0.45913       2.300
 
:POS003: ATOM   -3 X,Y,Z = 0.50000 0.50000 0.50000  MULT= 1  ZZ= 27.000  Co1
 
       LMMAX 16
       LM=   0 0  2 0  2 2 -2 2  4 0  4 2 -4 2  4 4 -4 4  6 0  6 2 -6 2  6 4 -6 4  6 6 -6 6
 
:CHA003: TOTAL VALENCE CHARGE INSIDE SPHERE   3 =   7.9797    (RMT=  2.3000 )
:PCS003: PARTIAL CHARGES SPHERE =  3 S,P,D,F,PX,PY,PZ,D-Z2,D-X2Y2,D-XY,D-XZ,D-YZ
:QTL003: 0.2406 3.2116 4.5098 0.0131 1.0560 1.0805 1.0748 0.8951 0.8981 0.9068 0.9086 0.9006
        Q-s-low E-s-low   Q-p-low E-p-low   Q-d-low E-d-low   Q-f-low E-f-low
:EPL003:  0.0000 10.0000    2.9952 -3.7825    0.0000 10.0000    0.0000 10.0000
        Q-s-hi  E-s-hi    Q-p-hi  E-p-hi    Q-d-hi  E-d-hi    Q-f-hi  E-f-hi
:EPH003:  0.2399  0.2529    0.2163  0.3980    4.5090  0.3990    0.0130  0.3928
 
                      QXX         QXY         QYY         QZZ       UP TO R
:VZZ003:             1.66579     2.50357    -1.22721    -0.43858       2.300
 
:POS004: ATOM   -4 X,Y,Z = 0.33333 0.66667 0.00000  MULT= 2  ZZ= 27.000  Co2
 
       LMMAX 28
       LM=   0 0  1 1 -1 1  2 0  2 2 -2 2  3 1 -3 1  3 3 -3 3  4 0  4 2 -4 2  4 4 -4 4  5 1 -5 1
         5 3 -5 3  5 5 -5 5  6 0  6 2 -6 2  6 4 -6 4  6 6 -6 6
 
:CHA004: TOTAL VALENCE CHARGE INSIDE SPHERE   4 =   7.9957    (RMT=  2.3000 )
:PCS004: PARTIAL CHARGES SPHERE =  4 S,P,D,F,PX,PY,PZ,D-Z2,D-X2Y2,D-XY,D-XZ,D-YZ
:QTL004: 0.2509 3.2121 4.5162 0.0128 1.0609 1.0610 1.0905 0.9107 0.9094 0.9093 0.8932 0.8930
        Q-s-low E-s-low   Q-p-low E-p-low   Q-d-low E-d-low   Q-f-low E-f-low
:EPL004:  0.0024 -1.0069    2.9958 -3.7935    0.0024 -1.2374    0.0000 10.0000
        Q-s-hi  E-s-hi    Q-p-hi  E-p-hi    Q-d-hi  E-d-hi    Q-f-hi  E-f-hi
:EPH004:  0.2490  0.2726    0.2156  0.4082    4.5144  0.3866    0.0126  0.4024
 
                      QXX         QXY         QYY         QZZ       UP TO R
:VZZ004:             1.09575    -0.00590     1.10078    -2.19650       2.300
 
:POS005: ATOM   -5 X,Y,Z = 0.00000 0.00000 0.00000  MULT= 1  ZZ= 65.000  Tb1
 
       LMMAX 16
       LM=   0 0  2 0  2 2 -2 2  4 0  4 2 -4 2  4 4 -4 4  6 0  6 2 -6 2  6 4 -6 4  6 6 -6 6
 
:CHA005: TOTAL VALENCE CHARGE INSIDE SPHERE   5 =  11.0194    (RMT=  2.5000 )
:PCS005: PARTIAL CHARGES SPHERE =  5 S,P,D,F,PX,PY,PZ,D-Z2,D-X2Y2,D-XY,D-XZ,D-YZ
:QTL005: 1.0473 2.8711 0.2295 6.8690 0.9591 0.9592 0.9522 0.0310 0.0631 0.0632 0.0359 0.0363
        Q-s-low E-s-low   Q-p-low E-p-low   Q-d-low E-d-low   Q-f-low E-f-low
:EPL005:  0.9856 -2.6215    2.7799 -0.9221    0.0000 10.0000    0.0000 10.0000
        Q-s-hi  E-s-hi    Q-p-hi  E-p-hi    Q-d-hi  E-d-hi    Q-f-hi  E-f-hi
:EPH005:  0.0623  0.3411    0.0915  0.3761    0.2295  0.4322    6.8689  0.4552
 
                      QXX         QXY         QYY         QZZ       UP TO R
:VZZ005:            -2.82325    -0.17133    -3.09931     5.92255       2.500
 
:CHA  : TOTAL VALENCE CHARGE INSIDE UNIT CELL =      54.490465
 
:SUM  : SUM OF EIGENVALUES =         -48.081452176
 
:GAP (global)   :    0.0    Ry =     0.0   eV (metal)
:GAP (this spin):    0.0    Ry =     0.0   eV (metal)
         Bandranges (emin - emax) and occupancy:
:BAN00087:  87    0.539382    0.623540  1.00000000
:BAN00088:  88    0.540865    0.632156  1.00000000
:BAN00089:  89    0.564899    0.638760  1.00000000
:BAN00090:  90    0.575784    0.646673  1.00000000
:BAN00091:  91    0.578116    0.655116  0.99865742
:BAN00092:  92    0.585470    0.661301  0.97173282
:BAN00093:  93    0.614383    0.669832  0.93051494
:BAN00094:  94    0.619441    0.677424  0.78996124
:BAN00095:  95    0.626365    0.679467  0.27755412
:BAN00096:  96    0.644516    0.680331  0.03134411
:BAN00097:  97    0.651848    0.686047  0.00023528
:BAN00098:  98    0.664479    0.704336  0.00000000
:BAN00099:  99    0.671803    0.726633  0.00000000
:BAN00100: 100    0.678612    0.733805  0.00000000
:BAN00101: 101    0.685589    0.747396  0.00000000
:BAN00102: 102    0.696586    0.771466  0.00000000
        Energy to separate low and high energystates:   -0.05796


:NOE  : NUMBER OF ELECTRONS          =   94.000

:FER  : F E R M I - ENERGY(TETRAH.M.)=   0.6543081877
:GMA  : POTENTIAL AND CHARGE CUT-OFF  16.00 Ry**.5
 
:POS001: ATOM   -1 X,Y,Z = 0.50000 0.00000 0.50000  MULT= 1  ZZ= 27.000  Co1
 
       LMMAX 16
       LM=   0 0  2 0  2 2 -2 2  4 0  4 2 -4 2  4 4 -4 4  6 0  6 2 -6 2  6 4 -6 4  6 6 -6 6
 
:CHA001: TOTAL VALENCE CHARGE INSIDE SPHERE   1 =   6.1772    (RMT=  2.3000 )
:PCS001: PARTIAL CHARGES SPHERE =  1 S,P,D,F,PX,PY,PZ,D-Z2,D-X2Y2,D-XY,D-XZ,D-YZ
:QTL001: 0.2404 3.2249 2.6950 0.0130 1.0613 1.0844 1.0794 0.5816 0.5505 0.5134 0.5069 0.5425
        Q-s-low E-s-low   Q-p-low E-p-low   Q-d-low E-d-low   Q-f-low E-f-low
:EPL001:  0.0000 10.0000    2.9952 -3.5473    0.0000 10.0000    0.0000 10.0000
        Q-s-hi  E-s-hi    Q-p-hi  E-p-hi    Q-d-hi  E-d-hi    Q-f-hi  E-f-hi
:EPH001:  0.2394  0.3153    0.2301  0.4738    2.6944  0.5342    0.0128  0.5327
 
                      QXX         QXY         QYY         QZZ       UP TO R
:VZZ001:             2.03493    -1.84300    -0.08688    -1.94802       2.300
 
:POS002: ATOM   -2 X,Y,Z = 0.00000 0.50000 0.50000  MULT= 1  ZZ= 27.000  Co1
 
       LMMAX 16
       LM=   0 0  2 0  2 2 -2 2  4 0  4 2 -4 2  4 4 -4 4  6 0  6 2 -6 2  6 4 -6 4  6 6 -6 6
 
:CHA002: TOTAL VALENCE CHARGE INSIDE SPHERE   2 =   6.1773    (RMT=  2.3000 )
:PCS002: PARTIAL CHARGES SPHERE =  2 S,P,D,F,PX,PY,PZ,D-Z2,D-X2Y2,D-XY,D-XZ,D-YZ
:QTL002: 0.2401 3.2252 2.6950 0.0130 1.0962 1.0496 1.0794 0.5820 0.4955 0.5688 0.5601 0.4885
        Q-s-low E-s-low   Q-p-low E-p-low   Q-d-low E-d-low   Q-f-low E-f-low
:EPL002:  0.0000 10.0000    2.9952 -3.5473    0.0000 10.0000    0.0000 10.0000
        Q-s-hi  E-s-hi    Q-p-hi  E-p-hi    Q-d-hi  E-d-hi    Q-f-hi  E-f-hi
:EPH002:  0.2394  0.3153    0.2303  0.4738    2.6944  0.5341    0.0128  0.5328
 
                      QXX         QXY         QYY         QZZ       UP TO R
:VZZ002:            -1.17386     0.01583     3.11002    -1.93613       2.300
 
:POS003: ATOM   -3 X,Y,Z = 0.50000 0.50000 0.50000  MULT= 1  ZZ= 27.000  Co1
 
       LMMAX 16
       LM=   0 0  2 0  2 2 -2 2  4 0  4 2 -4 2  4 4 -4 4  6 0  6 2 -6 2  6 4 -6 4  6 6 -6 6
 
:CHA003: TOTAL VALENCE CHARGE INSIDE SPHERE   3 =   6.1770    (RMT=  2.3000 )
:PCS003: PARTIAL CHARGES SPHERE =  3 S,P,D,F,PX,PY,PZ,D-Z2,D-X2Y2,D-XY,D-XZ,D-YZ
:QTL003: 0.2403 3.2253 2.6948 0.0130 1.0612 1.0846 1.0793 0.5820 0.5502 0.5135 0.5070 0.5425
        Q-s-low E-s-low   Q-p-low E-p-low   Q-d-low E-d-low   Q-f-low E-f-low
:EPL003:  0.0000 10.0000    2.9952 -3.5473    0.0000 10.0000    0.0000 10.0000
        Q-s-hi  E-s-hi    Q-p-hi  E-p-hi    Q-d-hi  E-d-hi    Q-f-hi  E-f-hi
:EPH003:  0.2395  0.3154    0.2303  0.4738    2.6939  0.5341    0.0128  0.5327
 
                      QXX         QXY         QYY         QZZ       UP TO R
:VZZ003:             2.02620     1.85606    -0.07313    -1.95307       2.300
 
:POS004: ATOM   -4 X,Y,Z = 0.33333 0.66667 0.00000  MULT= 2  ZZ= 27.000  Co2
 
       LMMAX 28
       LM=   0 0  1 1 -1 1  2 0  2 2 -2 2  3 1 -3 1  3 3 -3 3  4 0  4 2 -4 2  4 4 -4 4  5 1 -5 1
         5 3 -5 3  5 5 -5 5  6 0  6 2 -6 2  6 4 -6 4  6 6 -6 6
 
:CHA004: TOTAL VALENCE CHARGE INSIDE SPHERE   4 =   6.4269    (RMT=  2.3000 )
:PCS004: PARTIAL CHARGES SPHERE =  4 S,P,D,F,PX,PY,PZ,D-Z2,D-X2Y2,D-XY,D-XZ,D-YZ
:QTL004: 0.2334 3.2200 2.9581 0.0128 1.0606 1.0607 1.0984 0.5557 0.6181 0.6183 0.5834 0.5833
        Q-s-low E-s-low   Q-p-low E-p-low   Q-d-low E-d-low   Q-f-low E-f-low
:EPL004:  0.0026 -0.8558    2.9952 -3.5579    0.0032 -1.1100    0.0000 10.0000
        Q-s-hi  E-s-hi    Q-p-hi  E-p-hi    Q-d-hi  E-d-hi    Q-f-hi  E-f-hi
:EPH004:  0.2312  0.3124    0.2234  0.4755    2.9557  0.5340    0.0125  0.5455
 
                      QXX         QXY         QYY         QZZ       UP TO R
:VZZ004:             0.01661     0.00607     0.02270    -0.03932       2.300
 
:POS005: ATOM   -5 X,Y,Z = 0.00000 0.00000 0.00000  MULT= 1  ZZ= 65.000  Tb1
 
       LMMAX 16
       LM=   0 0  2 0  2 2 -2 2  4 0  4 2 -4 2  4 4 -4 4  6 0  6 2 -6 2  6 4 -6 4  6 6 -6 6
 
:CHA005: TOTAL VALENCE CHARGE INSIDE SPHERE   5 =   4.2714    (RMT=  2.5000 )
:PCS005: PARTIAL CHARGES SPHERE =  5 S,P,D,F,PX,PY,PZ,D-Z2,D-X2Y2,D-XY,D-XZ,D-YZ
:QTL005: 1.0423 2.8561 0.2561 0.1151 0.9534 0.9536 0.9492 0.0366 0.0627 0.0625 0.0475 0.0474
        Q-s-low E-s-low   Q-p-low E-p-low   Q-d-low E-d-low   Q-f-low E-f-low
:EPL005:  0.9824 -2.4105    2.7429 -0.7618    0.0000 10.0000    0.0000 10.0000
        Q-s-hi  E-s-hi    Q-p-hi  E-p-hi    Q-d-hi  E-d-hi    Q-f-hi  E-f-hi
:EPH005:  0.0594  0.3782    0.1131  0.4635    0.2561  0.5053    0.1149  0.5310
 
                      QXX         QXY         QYY         QZZ       UP TO R
:VZZ005:            -1.87142     0.12903    -1.71712     3.58859       2.500
 
:CHA  : TOTAL VALENCE CHARGE INSIDE UNIT CELL =      39.509531
 
:SUM  : SUM OF EIGENVALUES =         -47.663969735
 

        1.ATOM      Co1                   5 CORE STATES
:1S 001: 1S                -556.760660090 Ry
:2S 001: 2S                 -64.916997186 Ry
:2PP001: 2P*                -56.147188427 Ry
:2P 001: 2P                 -55.059056877 Ry
:3S 001: 3S                  -6.482188000 Ry

        2.ATOM      Co1                   5 CORE STATES
:1S 002: 1S                -556.760664640 Ry
:2S 002: 2S                 -64.917001767 Ry
:2PP002: 2P*                -56.147193000 Ry
:2P 002: 2P                 -55.059061451 Ry
[...]

:FER  : F E R M I - ENERGY(TETRAH.M.)=   0.6130514471
:GMA  : POTENTIAL AND CHARGE CUT-OFF  16.00 Ry**.5
 
:POS001: ATOM   -1 X,Y,Z = 0.50000 0.00000 0.50000  MULT= 1  ZZ= 27.000  Co1
 
       LMMAX 16
       LM=   0 0  2 0  2 2 -2 2  4 0  4 2 -4 2  4 4 -4 4  6 0  6 2 -6 2  6 4 -6 4  6 6 -6 6
 
:CHA001: TOTAL VALENCE CHARGE INSIDE SPHERE   1 =   6.2180    (RMT=  2.3000 )
:PCS001: PARTIAL CHARGES SPHERE =  1 S,P,D,F,PX,PY,PZ,D-Z2,D-X2Y2,D-XY,D-XZ,D-YZ
:QTL001: 0.2317 3.2104 2.7606 0.0118 1.0600 1.0773 1.0731 0.6031 0.5657 0.5363 0.5020 0.5533
        Q-s-low E-s-low   Q-p-low E-p-low   Q-d-low E-d-low   Q-f-low E-f-low
:EPL001:  0.0000 10.0000    2.9952 -3.6017    0.0000 10.0000    0.0000 10.0000
        Q-s-hi  E-s-hi    Q-p-hi  E-p-hi    Q-d-hi  E-d-hi    Q-f-hi  E-f-hi
:EPH001:  0.2308  0.2913    0.2156  0.4455    2.7600  0.4955    0.0115  0.5016
 
                      QXX         QXY         QYY         QZZ       UP TO R
:VZZ001:             1.37370    -1.17828     0.02746    -1.40112       2.300
 
:POS002: ATOM   -2 X,Y,Z = 0.00000 0.50000 0.50000  MULT= 1  ZZ= 27.000  Co1
 
       LMMAX 16
       LM=   0 0  2 0  2 2 -2 2  4 0  4 2 -4 2  4 4 -4 4  6 0  6 2 -6 2  6 4 -6 4  6 6 -6 6
 
:CHA002: TOTAL VALENCE CHARGE INSIDE SPHERE   2 =   6.2183    (RMT=  2.3000 )
:PCS002: PARTIAL CHARGES SPHERE =  2 S,P,D,F,PX,PY,PZ,D-Z2,D-X2Y2,D-XY,D-XZ,D-YZ
:QTL002: 0.2315 3.2104 2.7611 0.0116 1.0862 1.0516 1.0728 0.6043 0.5248 0.5775 0.5800 0.4748
        Q-s-low E-s-low   Q-p-low E-p-low   Q-d-low E-d-low   Q-f-low E-f-low
:EPL002:  0.0000 10.0000    2.9952 -3.6017    0.0000 10.0000    0.0000 10.0000
        Q-s-hi  E-s-hi    Q-p-hi  E-p-hi    Q-d-hi  E-d-hi    Q-f-hi  E-f-hi
:EPH002:  0.2312  0.2913    0.2156  0.4455    2.7607  0.4955    0.0114  0.5016
 
                      QXX         QXY         QYY         QZZ       UP TO R
:VZZ002:            -0.67024     0.04010     2.04311    -1.37282       2.300
 
:POS003: ATOM   -3 X,Y,Z = 0.50000 0.50000 0.50000  MULT= 1  ZZ= 27.000  Co1
 
       LMMAX 16
       LM=   0 0  2 0  2 2 -2 2  4 0  4 2 -4 2  4 4 -4 4  6 0  6 2 -6 2  6 4 -6 4  6 6 -6 6
 
:CHA003: TOTAL VALENCE CHARGE INSIDE SPHERE   3 =   6.2176    (RMT=  2.3000 )
:PCS003: PARTIAL CHARGES SPHERE =  3 S,P,D,F,PX,PY,PZ,D-Z2,D-X2Y2,D-XY,D-XZ,D-YZ
:QTL003: 0.2316 3.2106 2.7605 0.0117 1.0600 1.0774 1.0728 0.6040 0.5641 0.5384 0.5016 0.5528
        Q-s-low E-s-low   Q-p-low E-p-low   Q-d-low E-d-low   Q-f-low E-f-low
:EPL003:  0.0000 10.0000    2.9952 -3.6016    0.0000 10.0000    0.0000 10.0000
        Q-s-hi  E-s-hi    Q-p-hi  E-p-hi    Q-d-hi  E-d-hi    Q-f-hi  E-f-hi
:EPH003:  0.2308  0.2913    0.2156  0.4455    2.7598  0.4955    0.0115  0.5016
 
                      QXX         QXY         QYY         QZZ       UP TO R
:VZZ003:             1.31113     1.18905     0.04429    -1.35544       2.300
 
:POS004: ATOM   -4 X,Y,Z = 0.33333 0.66667 0.00000  MULT= 2  ZZ= 27.000  Co2
 
       LMMAX 28
       LM=   0 0  1 1 -1 1  2 0  2 2 -2 2  3 1 -3 1  3 3 -3 3  4 0  4 2 -4 2  4 4 -4 4  5 1 -5 1
         5 3 -5 3  5 5 -5 5  6 0  6 2 -6 2  6 4 -6 4  6 6 -6 6
 
:CHA004: TOTAL VALENCE CHARGE INSIDE SPHERE   4 =   6.2379    (RMT=  2.3000 )
:PCS004: PARTIAL CHARGES SPHERE =  4 S,P,D,F,PX,PY,PZ,D-Z2,D-X2Y2,D-XY,D-XZ,D-YZ
:QTL004: 0.2259 3.2057 2.7920 0.0124 1.0592 1.0596 1.0865 0.5414 0.5809 0.5758 0.5471 0.5473
        Q-s-low E-s-low   Q-p-low E-p-low   Q-d-low E-d-low   Q-f-low E-f-low
:EPL004:  0.0024 -1.0104    2.9952 -3.6004    0.0024 -1.2485    0.0000 10.0000
        Q-s-hi  E-s-hi    Q-p-hi  E-p-hi    Q-d-hi  E-d-hi    Q-f-hi  E-f-hi
:EPH004:  0.2239  0.2928    0.2092  0.4469    2.7902  0.4966    0.0107  0.5119
 
                      QXX         QXY         QYY         QZZ       UP TO R
:VZZ004:             0.10072     0.08719     0.20292    -0.30363       2.300
 
:POS005: ATOM   -5 X,Y,Z = 0.00000 0.00000 0.00000  MULT= 1  ZZ= 65.000  Tb1
 
       LMMAX 16
       LM=   0 0  2 0  2 2 -2 2  4 0  4 2 -4 2  4 4 -4 4  6 0  6 2 -6 2  6 4 -6 4  6 6 -6 6
 
:CHA005: TOTAL VALENCE CHARGE INSIDE SPHERE   5 =   5.4192    (RMT=  2.5000 )
:PCS005: PARTIAL CHARGES SPHERE =  5 S,P,D,F,PX,PY,PZ,D-Z2,D-X2Y2,D-XY,D-XZ,D-YZ
:QTL005: 1.0495 2.8726 0.3453 1.1500 0.9591 0.9598 0.9540 0.0549 0.0804 0.0797 0.0655 0.0655
        Q-s-low E-s-low   Q-p-low E-p-low   Q-d-low E-d-low   Q-f-low E-f-low
:EPL005:  0.9824 -2.5685    2.7642 -0.9114    0.0000 10.0000    0.0000 10.0000
        Q-s-hi  E-s-hi    Q-p-hi  E-p-hi    Q-d-hi  E-d-hi    Q-f-hi  E-f-hi
:EPH005:  0.0661  0.3319    0.1081  0.4316    0.3453  0.4669    1.1500  0.5788
 
                      QXX         QXY         QYY         QZZ       UP TO R
:VZZ005:            -4.62980    -0.85988    -5.63504    10.26484       2.500
 
:CHA  : TOTAL VALENCE CHARGE INSIDE UNIT CELL =      40.457039
 
:SUM  : SUM OF EIGENVALUES =         -49.175056806
 

        1.ATOM      Co1                   5 CORE STATES
:1S 001: 1S                -556.816849332 Ry
:2S 001: 2S                 -64.942313434 Ry
:2PP001: 2P*                -56.179639252 Ry
:2P 001: 2P                 -55.090830108 Ry
:3S 001: 3S                  -6.440555532 Ry

        2.ATOM      Co1                   5 CORE STATES
:1S 002: 1S                -556.816953235 Ry
:2S 002: 2S                 -64.942407433 Ry
:2PP002: 2P*                -56.179733315 Ry
:2P 002: 2P                 -55.090924161 Ry
:3S 002: 3S                  -6.440639984 Ry

        3.ATOM      Co1                   5 CORE STATES
:1S 003: 1S                -556.816848022 Ry
:2S 003: 2S                 -64.942303043 Ry
:2PP003: 2P*                -56.179630693 Ry
:2P 003: 2P                 -55.090821403 Ry
:3S 003: 3S                  -6.440531339 Ry

        4.ATOM      Co2                   5 CORE STATES
       CORE-FORCE in mRy/a.u. = |F|      Fx             Fy             Fz
:FCO004:   4.ATOM      7.200331668726      2.522978916862      6.743838189394      0.000000000000

:1S 004: 1S                -556.814889002 Ry
:2S 004: 2S                 -64.937622522 Ry
:2PP004: 2P*                -56.175361193 Ry
:2P 004: 2P                 -55.086514732 Ry
:3S 004: 3S                  -6.436733541 Ry

        5.ATOM      Tb1                  14 CORE STATES
:1S 005: 1S               -3807.004655338 Ry
:2S 005: 2S                -630.215836966 Ry
:2PP005: 2P*               -598.801687963 Ry
:2P 005: 2P                -543.928892675 Ry
:3S 005: 3S                -139.408400226 Ry
:3PP005: 3P*               -125.754116774 Ry
:3P 005: 3P                -114.438452552 Ry
:3DD005: 3D*                -90.928488828 Ry
:3D 005: 3D                 -88.460863304 Ry
:4S 005: 4S                 -27.283595809 Ry
:4PP005: 4P*                -21.935485331 Ry
:4P 005: 4P                 -19.404191874 Ry
:4DD005: 4D*                -10.598827890 Ry
:4D 005: 4D                 -10.139721393 Ry

        1.ATOM      Co1                   5 CORE STATES
:1S 001: 1S                -556.817347169 Ry
:2S 001: 2S                 -64.875129106 Ry
:2PP001: 2P*                -56.130118867 Ry
:2P 001: 2P                 -55.039740236 Ry
:3S 001: 3S                  -6.298859147 Ry

        2.ATOM      Co1                   5 CORE STATES
:1S 002: 1S                -556.817449923 Ry
:2S 002: 2S                 -64.875195361 Ry
:2PP002: 2P*                -56.130191804 Ry
:2P 002: 2P                 -55.039812542 Ry
:3S 002: 3S                  -6.298881057 Ry

        3.ATOM      Co1                   5 CORE STATES
:1S 003: 1S                -556.817342932 Ry
:2S 003: 2S                 -64.875115136 Ry
:2PP003: 2P*                -56.130106266 Ry
:2P 003: 2P                 -55.039727477 Ry
:3S 003: 3S                  -6.298822950 Ry

        4.ATOM      Co2                   5 CORE STATES
       CORE-FORCE in mRy/a.u. = |F|      Fx             Fy             Fz
:FCO004:   4.ATOM      7.067670820472      2.444576953794      6.631441347364      0.000000000000

:1S 004: 1S                -556.815350924 Ry
:2S 004: 2S                 -64.872093772 Ry
:2PP004: 2P*                -56.127066856 Ry
:2P 004: 2P                 -55.036689839 Ry
:3S 004: 3S                  -6.298483648 Ry

        5.ATOM      Tb1                  14 CORE STATES
:1S 005: 1S               -3807.004770919 Ry
:2S 005: 2S                -630.212696187 Ry
:2PP005: 2P*               -598.800173651 Ry
:2P 005: 2P                -543.926411723 Ry
:3S 005: 3S                -139.240769598 Ry
:3PP005: 3P*               -125.603224723 Ry
:3P 005: 3P                -114.264442212 Ry
:3DD005: 3D*                -90.804366992 Ry
:3D 005: 3D                 -88.330850613 Ry
:4S 005: 4S                 -26.903224063 Ry
:4PP005: 4P*                -21.555661587 Ry
:4P 005: 4P                 -19.028835819 Ry
:4DD005: 4D*                -10.225871394 Ry
:4D 005: 4D                  -9.768524059 Ry
:CINT001 Core Integral Atom   1 Up    5.99961213 Dn   5.999581 Total  11.99919359
:CINT002 Core Integral Atom   2 Up    5.99961213 Dn   5.999581 Total  11.99919359
:CINT003 Core Integral Atom   3 Up    5.99961212 Dn   5.999581 Total  11.99919359
:CINT004 Core Integral Atom   4 Up    5.99960947 Dn   5.999580 Total  11.99918910
:CINT005 Core Integral Atom   5 Up   22.99997711 Dn  22.999973 Total  45.99994992

       DENSITY AT NUCLEUS
        JATOM        VALENCE       SEMI-CORE          CORE           TOTAL
:RTO001:   1        8.142737        0.000000    17496.964705    17505.107442
:RTO002:   2        8.142844        0.000000    17496.965337    17505.108181
:RTO003:   3        8.143670        0.000000    17496.965087    17505.108757
:RTO004:   4        8.090182        0.000000    17496.911945    17505.002126
:RTO005:   5     1239.094823        0.000000  1219630.227593  1220869.322416

       HYPERFINE FIELDS FOR THOMSON RADIUS
:HFF001:           -9.989           0.000        -202.190        -212.179 (KGAUSS)
:HFF002:           -9.820           0.000        -202.277        -212.097 (KGAUSS)
:HFF003:           -9.184           0.000        -202.199        -211.383 (KGAUSS)
:HFF004:           53.926           0.000        -197.020        -143.094 (KGAUSS)
:HFF005:         2513.019           0.000       -2491.828          21.191 (KGAUSS)
:K-LIST:Reduced k-vector list    19745    2293
     
       CHARGES OF NEW CHARGE DENSITY
:NTO   : INTERSTITIAL      UP =     3.421186 DN =     3.907647 TOT =     7.328833
:NPC   : INTERSTITIAL      UP =    10.534016 DN =    10.028188 TOT =    20.562204
:NTO001: CHARGE SPHERE   1 UP =   13.806347 DN =   12.217705 TOT =   26.024052
:NTO002: CHARGE SPHERE   2 UP =   13.806806 DN =   12.218136 TOT =   26.024942
:NTO003: CHARGE SPHERE   3 UP =   13.806544 DN =   12.217366 TOT =   26.023911
:NTO004: CHARGE SPHERE   4 UP =   13.796229 DN =   12.237582 TOT =   26.033811
:NTO005: CHARGE SPHERE   5 UP =   34.107653 DN =   28.418897 TOT =   62.526549

:NEC01: NUCLEAR AND ELECTRONIC CHARGE    200.00000000   199.99590872 Plane Wave
     
       CHARGES OF OLD CHARGE DENSITY
:OTO   : INTERSTITIAL      UP =     3.422640 DN =     3.908951 TOT =     7.331591
:OPC   : INTERSTITIAL      UP =    10.541565 DN =    10.033398 TOT =    20.574963
:OTO001: CHARGE SPHERE   1 UP =   13.806848 DN =   12.217826 TOT =   26.024674
:OTO002: CHARGE SPHERE   2 UP =   13.807245 DN =   12.217355 TOT =   26.024600
:OTO003: CHARGE SPHERE   3 UP =   13.807109 DN =   12.217575 TOT =   26.024683
:OTO004: CHARGE SPHERE   4 UP =   13.796586 DN =   12.237243 TOT =   26.033829
:OTO005: CHARGE SPHERE   5 UP =   34.107948 DN =   28.418844 TOT =   62.526793

:NEC02: NUCLEAR AND ELECTRONIC CHARGE    200.00000000   200.00000000
     
       CONVERGENCE TEST
:DTO001: DIFFERENCE SPHERE  1 UP =  0.0006081 DN =  0.0003702 TOT =  0.0009784
:DTO002: DIFFERENCE SPHERE  2 UP =  0.0004305 DN =  0.0008098 TOT =  0.0012403
:DTO003: DIFFERENCE SPHERE  3 UP =  0.0006111 DN =  0.0004079 TOT =  0.0010190
:DTO004: DIFFERENCE SPHERE  4 UP =  0.0004071 DN =  0.0002285 TOT =  0.0006356
:DTO005: DIFFERENCE SPHERE  5 UP =  0.0005396 DN =  0.0005924 TOT =  0.0011320

:DIS  :  CHARGE DISTANCE      (  0.0008098 for atom    2 spin 2)      0.0018803
 
******************************************************
* Multisecant Mixing Release 10.8.9                  *
* Standard Mode with step bound                      *
* Multisecant MSR1 Algorithm                         *
* Regularization       2.000E-04                     *
* Minimum Greed        1.000E-03                     *
* Max Number of Memory Steps    8                    *
******************************************************
 
:INFOC: Max vcoul   0.00003 for atom   3 average:   0.00001

:FULLRMS/Atom   0.0016600270
:PLANE:  PW /ATOM     1.08546 DISTAN   3.14E-04 %  2.89E-02
:CHARG:  CLM/ATOM   260.58403 DISTAN   1.11E-03 %  4.25E-04
:INFOF Fractnow,Tolerror,TolReject,qtot     0.635     1.667     3.000     0.002 F F F

Step History
        Dmix         Dmixt        Red     Pred      Step      Lambda    MagAbs    Beta
  4   2.2649E-02   7.0738E-03  9.43E-01  9.61E-01  6.33E-02  4.44E+00  1.87E-03  1.00E+00
  5   2.2584E-02   3.1936E-03  8.80E-01  8.81E-01  1.34E-01  2.27E+00  3.74E-03  1.00E+00
  6   1.6797E-02   5.5201E-03  8.46E-01  8.50E-01  3.05E-01  1.84E+00  7.49E-03  1.00E+00
  7   3.3594E-02   2.3865E-02  6.61E-01  7.22E-01  4.87E-01  1.61E+00  1.01E-02  8.70E-01
  8   4.6841E-02   4.3752E-02  6.36E-01  7.93E-01  7.24E-01  1.39E+00  9.92E-03  1.00E+00
  9   5.8757E-02   5.8757E-02  9.25E-01  7.75E-01  8.87E-01  1.21E+00  7.73E-03  1.00E+00
 10   1.1751E-01   1.1751E-01  8.59E-01  6.68E-01  6.29E-01  1.32E+00  5.07E-03  8.74E-01
 11   6.9548E-02   6.9548E-02  9.25E-01  7.33E-01  5.37E-01  1.14E+00  3.72E-03  7.52E-01
 12   5.1249E-02   5.1249E-02  1.00E+00  8.11E-01  4.60E-01  1.09E+00  2.95E-03  6.30E-01
:NOTE :  Number of Memory Steps    8 Skipping    3
:INFOSL ,t1/t2,syy/sys,sqrt(syy/sss)     0.001     0.005     0.299     4.733     5.260     0.900     4.733     8.588     0.551

:PREDicted Charge, CTotal, PW Trust   5.49E-04   1.40E-03   1.15E-03
:PREDicted DMix, Beta, BLim           2.49E-02   1.10E+00   2.22E-01

Eigenvalues, unscaled except for SY+YY with Slambda=   1.00000 Ylambda=   1.00000
   #     SY Real       SY Imag         SS            YY        SY+YY Real     SY+YY Imag
   1   2.47923E+00   0.00000E+00   4.27818E+00   1.92072E+00   4.35885E+00   0.00000E+00
   2   4.80930E-01   0.00000E+00   5.59239E-01   1.87834E+00   1.99348E+00   0.00000E+00
   3   4.63844E-02   0.00000E+00   1.51024E-02   6.07061E-01   1.04348E+00   0.00000E+00
   4   3.09738E-02   0.00000E+00   8.65817E-04   3.55087E-01   3.70416E-01   0.00000E+00
   5   7.39006E-04   0.00000E+00   4.31152E-04   1.67777E-01   2.10191E-01   0.00000E+00
   6   1.46477E-06   0.00000E+00   2.74136E-05   1.86658E-02   2.15839E-02   0.00000E+00
   7   1.27158E-04   0.00000E+00   1.03897E-05   1.69856E-03   1.97651E-03   0.00000E+00
   8   1.22525E-02   0.00000E+00   1.06288E-07   1.42086E-05   1.93354E-05   0.00000E+00

:SING : Singular value  4.376E+00  Weight  1.000E+00  Projection  5.828E-04
:SING : Singular value  1.993E+00  Weight  1.000E+00  Projection -1.657E-04
:SING : Singular value  1.046E+00  Weight  1.000E+00  Projection  2.839E-03
:SING : Singular value  3.705E-01  Weight  1.000E+00  Projection  2.105E-03
:SING : Singular value  2.091E-01  Weight  1.000E+00  Projection -3.019E-03
:SING : Singular value  2.158E-02  Weight  9.984E-01  Projection -1.357E-02
:SING : Singular value  1.976E-03  Weight  8.361E-01  Projection -3.960E-02
:SING : Singular value  1.933E-05  Weight  4.879E-04  Projection  3.694E-04

:RANK :  ACTIVE   6.83/8  =  85.44 % ; YY RANK   6.79/8  =  84.85 %
:TRUST:  Step  4.9E-01 Charge  2.6E-03 (e) CTO  1.1E-02 (e) PW  3.1E-02 (e)
:DTRUS:  Lambda   4.093E-01 Increment   7.883E-15 Iterations    53 DMIX   1.590E-02
:DIRM :  MEMORY  8/8  RED  0.64 PRED  0.81 NEXT  1.01
:NOTE :  Limited by Atoms F by Step T

:DIRP : |MSR1|= 5.427E-04 |PRATT|= 1.109E-03 ANGLE=  22.7 DEGREES
:DIRQ : |MSR1|= 1.933E-03 |PRATT|= 3.912E-03 ANGLE=  40.0 DEGREES
:DIRT : |MSR1|= 2.008E-03 |PRATT|= 4.066E-03 ANGLE=  38.9 DEGREES
:MIX  :  MSE1   REGULARIZATION:  8.75E-04 GREED: 0.04426  LMStep 0.36  0.4939 Step           
     
       CHARGES OF MIXED CHARGE DENSITY
:CTO   : INTERSTITIAL      UP =     3.422719 DN =     3.908832 TOT =     7.331550
:CPC   : INTERSTITIAL      UP =    10.540609 DN =    10.033078 TOT =    20.573687
:CTO001: CHARGE SPHERE   1 UP =   13.806750 DN =   12.217956 TOT =   26.024706
:CTO002: CHARGE SPHERE   2 UP =   13.807107 DN =   12.217551 TOT =   26.024658
:CTO003: CHARGE SPHERE   3 UP =   13.806986 DN =   12.217713 TOT =   26.024699
:CTO004: CHARGE SPHERE   4 UP =   13.796506 DN =   12.237302 TOT =   26.033808
:CTO005: CHARGE SPHERE   5 UP =   34.107742 DN =   28.419029 TOT =   62.526771

       SPIN MAGNETIC MOMENTS OF MIXED CHARGE DENSITY
:MMINT:  MAGNETIC MOMENT IN INTERSTITIAL  =   -0.48611
:MMI001: MAGNETIC MOMENT IN SPHERE   1    =    1.58879
:MMI002: MAGNETIC MOMENT IN SPHERE   2    =    1.58956
:MMI003: MAGNETIC MOMENT IN SPHERE   3    =    1.58927
:MMI004: MAGNETIC MOMENT IN SPHERE   4    =    1.55920
:MMI005: MAGNETIC MOMENT IN SPHERE   5    =    5.68871
:MMTOT:  SPIN MAGNETIC MOMENT IN CELL     =   13.08863

:NEC03: NUCLEAR AND ELECTRONIC CHARGE    200.00000000   200.00000000

:VSNew: Total Rescaling   1.00000000

PW CHANGE     H    K    L      Current       Change    Residue
:PUP001:      0    0    0  2.44782651E-02 -1.538E-06 -2.125E-06
:PUP002:     -1    0    0  2.72039174E-03  1.274E-06  3.675E-06
:PUP003:     -1    1    0  2.72340271E-03  1.283E-06  3.533E-06
:PUP004:      0   -1    0  2.71807593E-03  1.353E-06  4.633E-06
:PUP005:      0    0   -1  6.34784682E-03  6.635E-07  2.637E-06
:PUP006:     -1    0   -1  6.87322602E-03  4.770E-07  5.073E-07
:PUP007:     -1    0    1  6.87631804E-03  4.118E-07  4.695E-07
:PUP008:     -1    1   -1  6.87274764E-03  4.840E-07  4.765E-07
:PUP009:     -1    1    1  6.87581410E-03  4.321E-07  4.625E-07
:PUP010:      0   -1   -1  6.87352127E-03  4.726E-07  7.480E-07
:PUP011:      0   -1    1  6.87345430E-03  4.726E-07  7.529E-07
:PUP012:     -2    1    0  6.28346705E-03  1.951E-08 -4.542E-07
  
:PDN001:      0    0    0  2.44407185E-02 -7.699E-07  2.219E-06
:PDN002:     -1    0    0  3.51766374E-03  1.601E-06  4.440E-06
:PDN003:     -1    1    0  3.51600263E-03  1.589E-06  3.547E-06
:PDN004:      0   -1    0  3.52774397E-03  1.512E-06  4.524E-06
:PDN005:      0    0   -1  6.66237433E-03  1.425E-06  3.788E-06
:PDN006:     -1    0   -1  6.82291683E-03  1.236E-06  1.452E-06
:PDN007:     -1    0    1  6.79457583E-03  1.144E-06  1.425E-06
:PDN008:     -1    1   -1  6.82273148E-03  1.266E-06  2.014E-06
:PDN009:     -1    1    1  6.79444829E-03  1.177E-06  2.000E-06
:PDN010:      0   -1   -1  6.81445488E-03  1.245E-06  2.323E-06
:PDN011:      0   -1    1  6.81443112E-03  1.249E-06  2.327E-06
:PDN012:     -2    1    0  6.02615920E-03  4.707E-07  3.250E-07

:ENE  : ********** TOTAL ENERGY IN Ry =       -37373.11281988

:FOR001:   1.ATOM          0.000          0.000          0.000          0.000 partial forces
:FOR002:   2.ATOM          0.000          0.000          0.000          0.000 partial forces
:FOR003:   3.ATOM          0.000          0.000          0.000          0.000 partial forces
:FOR004:   4.ATOM          0.497          0.087         -0.489          0.000 partial forces
:FOR005:   5.ATOM          0.000          0.000          0.000          0.000 partial forces
       TOTAL FORCE WITH RESPECT TO THE GLOBAL COORDINATE SYSTEM:
:FGL001:   1.ATOM                 0.000000000     0.000000000     0.000000000 partial forces
:FGL002:   2.ATOM                 0.000000000     0.000000000     0.000000000 partial forces
:FGL003:   3.ATOM                 0.000000000     0.000000000     0.000000000 partial forces
:FGL004:   4.ATOM                 0.100841416    -0.438403914     0.000000000 partial forces
:FGL005:   5.ATOM                 0.000000000     0.000000000     0.000000000 partial forces
