
:LABEL1: Calculations in /pscratch/sd/z/zhang714/cmae_jobs/cmae-main/test_TbCo5/00_n30_regular/case
:LABEL2: on nid005454 at Tue Feb 24 04:08:15 AM PST 2026
:LABEL3: using WIEN2k_24.1 (Release 1/8/2024) in /global/homes/z/zhang714/github/wien2k/src

:LABEL4: using the command: runsp_lapw_fix_orb -so -orb -p -cc 0.001 -ec 0.00001 -i 100

 Euler-Maclaurian Coulomb
 Consistent 3/8+Simpson combinations at start/end
 New Mode for Coulomb Integral
 Extension of core to zero
 LDM version in phi
 Fifth-order quadrature in outwin
 Lebedev-Laikov Grid in lapw0


            ---------
:ITE072: 72. ITERATION
            ---------

:NATO :    5 INDEPENDENT AND    6 TOTAL ATOMS IN UNITCELL
       SUBSTANCE: blebleble                                s-o calc. M||  0.10

       LATTICE                      = H   
:LAT  : LATTICE CONSTANTS=  9.34658  9.34658  7.54001
:VOL  : UNIT CELL VOLUME =     570.43781
:POT  : POTENTIAL OPTION EX_PBE EC_PBE VX_PBE VC_PBE
       MODE OF CALCULATION IS       = RELA
       SPINPOLARIZED CALCULATION
:IFFT  : FFT-parameters:   96   96   80 Factor: 2.00


   CONVERGENCE PARAMETER FOR PSEUDOCHARGE: NCON=  9
   MAXIMAL VALUE OF RMT(JATOM)*ABSK(NKK) : RK  =39.99508


:VKCOUL :  VK-COUL convergence: 0.171E-09
 Lebedev grid of          350
 :rho_min:   2.0000000000000000E-008   1.0000000000000001E-009
:VCOUL001 ATOMNUMBER=  1 Co1     VCOUL-ZERO =  0.58169E+00
:EFG001:                        EFG         =     4.02849   *10**21  V / m**2
                               V20  TOT/SRF=    -0.66364     0.01181
                               V22  TOT/SRF=     1.83143    -0.05079
                               V22M TOT/SRF=    -3.15188     0.08826
                               V21  TOT/SRF=     0.00000     0.00000
                               V21M TOT/SRF=     0.00000     0.00000

              2.21458   -3.15188    0.00000        4.02849    0.00000    0.00000
             -3.15188   -1.44827    0.00000        0.00000   -3.26218    0.00000
              0.00000    0.00000   -0.76631        0.00000    0.00000   -0.76631

         MAIN DIRECTIONS OF THE EFG   1.0000  0.5755  0.0000
                                     -0.5755  1.0000  0.0000
                                      0.0000  0.0000  1.0000
:ANG001:  ANGLE WITH OLD X-AXIS =        29.9

:ETA001:                         ASYMM. ETA =     0.61956


:VCOUL002 ATOMNUMBER=  2 Co1     VCOUL-ZERO =  0.58169E+00
:EFG002:                        EFG         =     4.02844   *10**21  V / m**2
                               V20  TOT/SRF=    -0.66366     0.01181
                               V22  TOT/SRF=    -3.64526     0.10184
                               V22M TOT/SRF=     0.01012     0.00015
                               V21  TOT/SRF=     0.00000     0.00000
                               V21M TOT/SRF=     0.00000     0.00000

             -3.26209    0.01012    0.00000       -3.26210    0.00000    0.00000
              0.01012    4.02842    0.00000        0.00000    4.02844    0.00000
              0.00000    0.00000   -0.76633        0.00000    0.00000   -0.76633

         MAIN DIRECTIONS OF THE EFG   1.0000  0.0014  0.0000
                                     -0.0014  1.0000  0.0000
                                     -0.0000 -0.0000  1.0000
:ANG002:  ANGLE WITH OLD X-AXIS =         0.1

:ETA002:                         ASYMM. ETA =     0.61954


:VCOUL003 ATOMNUMBER=  3 Co1     VCOUL-ZERO =  0.58177E+00
:EFG003:                        EFG         =     4.03109   *10**21  V / m**2
                               V20  TOT/SRF=    -0.66494     0.01183
                               V22  TOT/SRF=     1.82359    -0.05095
                               V22M TOT/SRF=     3.15856    -0.08825
                               V21  TOT/SRF=     0.00000     0.00000
                               V21M TOT/SRF=     0.00000     0.00000

              2.20750    3.15856    0.00000        4.03109    0.00000    0.00000
              3.15856   -1.43969    0.00000        0.00000   -3.26328    0.00000
              0.00000    0.00000   -0.76781        0.00000    0.00000   -0.76781

         MAIN DIRECTIONS OF THE EFG   1.0000 -0.5774  0.0000
                                      0.5774  1.0000  0.0000
                                      0.0000  0.0000  1.0000
:ANG003:  ANGLE WITH OLD X-AXIS =        30.0

:ETA003:                         ASYMM. ETA =     0.61906


:VCOUL004 ATOMNUMBER=  4 Co2     VCOUL-ZERO =  0.57143E+00
:EFG004:                        EFG         =    -2.84955   *10**21  V / m**2
                               V20  TOT/SRF=    -2.46778     0.05424
                               V22  TOT/SRF=    -0.00067     0.00001
                               V22M TOT/SRF=    -0.00117     0.00001
                               V21  TOT/SRF=     0.00000     0.00000
                               V21M TOT/SRF=     0.00000     0.00000

              1.42411   -0.00117    0.00000        1.42343    0.00000    0.00000
             -0.00117    1.42544    0.00000        0.00000    1.42612    0.00000
              0.00000    0.00000   -2.84955        0.00000    0.00000   -2.84955

         MAIN DIRECTIONS OF THE EFG   1.0000 -0.5803  0.0000
                                      0.5803  1.0000  0.0000
                                     -0.0000 -0.0000  1.0000
:ANG004:  ANGLE WITH OLD X-AXIS =        30.1

:ETA004:                         ASYMM. ETA =     0.00094


:VCOUL005 ATOMNUMBER=  5 Tb1     VCOUL-ZERO =  0.36449E+00
:EFG005:                        EFG         =    15.73942   *10**21  V / m**2
                               V20  TOT/SRF=    13.63073     0.01637
                               V22  TOT/SRF=    -0.01142    -0.00005
                               V22M TOT/SRF=    -0.01938    -0.00008
                               V21  TOT/SRF=     0.00000     0.00000
                               V21M TOT/SRF=     0.00000     0.00000

             -7.88112   -0.01938    0.00000       -7.89220    0.00000    0.00000
             -0.01938   -7.85829    0.00000        0.00000   -7.84722    0.00000
              0.00000    0.00000   15.73942        0.00000    0.00000   15.73942

         MAIN DIRECTIONS OF THE EFG   1.0000 -0.5715  0.0000
                                      0.5715  1.0000  0.0000
                                     -0.0000 -0.0000  1.0000
:ANG005:  ANGLE WITH OLD X-AXIS =        29.7

:ETA005:                         ASYMM. ETA =     0.00286


     HELLMANN-FEYNMAN-FORCE IN mRy/a.u. = |F|  Fx       Fy             Fz
:FHF001:   1.ATOM      0.000000000000      0.000000000000      0.000000000000      0.000000000000

     HELLMANN-FEYNMAN-FORCE IN mRy/a.u. = |F|  Fx       Fy             Fz
:FHF002:   2.ATOM      0.000000000000      0.000000000000      0.000000000000      0.000000000000

     HELLMANN-FEYNMAN-FORCE IN mRy/a.u. = |F|  Fx       Fy             Fz
:FHF003:   3.ATOM      0.000000000000      0.000000000000      0.000000000000      0.000000000000

     HELLMANN-FEYNMAN-FORCE IN mRy/a.u. = |F|  Fx       Fy             Fz
:FHF004:   4.ATOM      1.715080112098      0.863852937022     -1.481640271494      0.000000000000

     HELLMANN-FEYNMAN-FORCE IN mRy/a.u. = |F|  Fx       Fy             Fz
:FHF005:   5.ATOM      0.000000000000      0.000000000000      0.000000000000      0.000000000000

:FIT001: LUSE= 13 SIGMA OF V-XC FIT FOR ATOM  1  0.4950327E-03
:FIT001: LUSE= 13 SIGMA OF V-XC FIT FOR ATOM  1  0.1152188E-02
:FIT002: LUSE= 13 SIGMA OF V-XC FIT FOR ATOM  2  0.4956407E-03
:FIT002: LUSE= 13 SIGMA OF V-XC FIT FOR ATOM  2  0.1152329E-02
:FIT003: LUSE= 13 SIGMA OF V-XC FIT FOR ATOM  3  0.4946376E-03
:FIT003: LUSE= 13 SIGMA OF V-XC FIT FOR ATOM  3  0.1151527E-02
:FIT004: LUSE= 13 SIGMA OF V-XC FIT FOR ATOM  4  0.3379102E-03
:FIT004: LUSE= 13 SIGMA OF V-XC FIT FOR ATOM  4  0.1320406E-02
:FIT005: LUSE= 13 SIGMA OF V-XC FIT FOR ATOM  5  0.3033974E-03
:FIT005: LUSE= 13 SIGMA OF V-XC FIT FOR ATOM  5  0.1027497E-02
:DEN  : DENSITY INTEGRAL  =        -14927.13564595   (Ry)
       ELS_POTENTIAL_AT Z=0 and Z=0.5:  -0.85216  -0.36076
       ELS_POTENTIAL_AT Y=0 and Y=0.5:  -0.56945  -0.25123
:VZERO:v0,v0c,v0x  -1.70900  -0.85216  -0.85684 v5,v5c,v5x  -1.11583  -0.36076  -0.75508
:VZERY:v0,v0c,v0x  -1.37071  -0.56945  -0.80126 v5,v5c,v5x  -1.07423  -0.25123  -0.82300
:VZERX:v0,v0c,v0x  -1.37071  -0.56945  -0.80126 v5,v5c,v5x  -1.07423  -0.25123  -0.82300
 :INFO: VX.gt.+1.0   1.3702273311090645       rho   9.1467184289695871E-003
:LMAX-WF:   10   Non-Spherical LMAX:   6

          ATOMIC SPHERE DEPENDENT PARAMETERS FOR ATOM  Co1       
:e__0001: OVERALL ENERGY PARAMETER IS    0.4128
          OVERALL BASIS SET ON ATOM IS LAPW
:E1_0001: E( 1)=    0.4128
             APW+lo
:E1_0001: E( 1)=   -3.7473   E(BOTTOM)=   -3.782   E(TOP)=   -3.712  1  2   178
             LOCAL ORBITAL
:E2_0001: E( 2)=    0.4244   E(BOTTOM)=    0.188   E(TOP)=    0.661  0  1   121
             APW+lo
:E0_0001: E( 0)=    0.4128
             APW+lo

          ATOMIC SPHERE DEPENDENT PARAMETERS FOR ATOM  Co1       
:e__0002: OVERALL ENERGY PARAMETER IS    0.4128
          OVERALL BASIS SET ON ATOM IS LAPW
:E1_0002: E( 1)=    0.4128
             APW+lo
:E1_0002: E( 1)=   -3.7473   E(BOTTOM)=   -3.782   E(TOP)=   -3.712  1  2   177
             LOCAL ORBITAL
:E2_0002: E( 2)=    0.4244   E(BOTTOM)=    0.188   E(TOP)=    0.661  0  1   121
             APW+lo
:E0_0002: E( 0)=    0.4128
             APW+lo

          ATOMIC SPHERE DEPENDENT PARAMETERS FOR ATOM  Co1       
:e__0003: OVERALL ENERGY PARAMETER IS    0.4128
          OVERALL BASIS SET ON ATOM IS LAPW
:E1_0003: E( 1)=    0.4128
             APW+lo
:E1_0003: E( 1)=   -3.7473   E(BOTTOM)=   -3.782   E(TOP)=   -3.712  1  2   182
             LOCAL ORBITAL
:E2_0003: E( 2)=    0.4245   E(BOTTOM)=    0.188   E(TOP)=    0.661  0  1   128
             APW+lo
:E0_0003: E( 0)=    0.4128
             APW+lo

          ATOMIC SPHERE DEPENDENT PARAMETERS FOR ATOM  Co2       
:e__0004: OVERALL ENERGY PARAMETER IS    0.4128
          OVERALL BASIS SET ON ATOM IS LAPW
:E1_0004: E( 1)=    0.4128
             APW+lo
:E1_0004: E( 1)=   -3.7435   E(BOTTOM)=   -3.779   E(TOP)=   -3.708  1  2   173
             LOCAL ORBITAL
:E2_0004: E( 2)=    0.4261   E(BOTTOM)=    0.188   E(TOP)=    0.664  0  1   125
             APW+lo
:E0_0004: E( 0)=    0.4128
             APW+lo

          ATOMIC SPHERE DEPENDENT PARAMETERS FOR ATOM  Tb1       
:e__0005: OVERALL ENERGY PARAMETER IS    0.4128
          OVERALL BASIS SET ON ATOM IS LAPW
:E0_0005: E( 0)=    0.4128
             APW+lo
:E0_0005: E( 0)=   -2.7847   E(BOTTOM)=   -2.975   E(TOP)=   -2.595  4  5   170
             LOCAL ORBITAL
:E1_0005: E( 1)=    0.8128
             APW+lo
:E1_0005: E( 1)=   -1.0577   E(BOTTOM)=   -1.480   E(TOP)=   -0.635  3  4   159
             LOCAL ORBITAL
:E3_0005: E( 3)=    0.3014   E(BOTTOM)=    0.242   E(TOP)=    0.361  0  0   118
             APW+lo
:E2_0005: E( 2)=    0.4128   E(BOTTOM)=    0.315   E(TOP)= -520.000  2 -1    89
             APW+lo

       K=  0.031250  0.031250  0.029412            1
:RKM  : MATRIX SIZE   653LOs:  80  RKM= 9.00  WEIGHT= 2.00  PGR:    
       EIGENVALUES ARE:
:EIG00001:      -3.7550687   -3.7530743   -3.7446740   -3.7446032   -3.7439335
:EIG00006:      -3.7377328   -3.7376511   -3.7353708   -3.7353442   -3.7329847
:EIG00011:      -3.7329028   -3.7325769   -3.7311087   -3.7301544   -3.7301475
:EIG00016:      -2.7500510   -1.0297325   -1.0230931   -1.0230569    0.0385644
:EIG00021:       0.2519408    0.2944315    0.3056873    0.3056979    0.3062933
:EIG00026:       0.3064339    0.3223254    0.3312480    0.3319068    0.3326742
:EIG00031:       0.3371101    0.3383554    0.3437575    0.3447345    0.3610854
:EIG00036:       0.3614030    0.3901807    0.4199331    0.4206048    0.4461311
:EIG00041:       0.4472398    0.4687919    0.4708952    0.4709584    0.4903323
:EIG00046:       0.4959628    0.4961433    0.5164132    0.5165329    0.5721155

:EIG00051:       0.5749173    0.5766912    0.6577083    0.6968611    0.7169187
:EIG00056:       0.7342356    0.7539990    0.8065362    0.8116872    0.9312670
:EIG00061:       0.9350712    1.1953641    1.2436659    1.2450988    1.3768815
:EIG00066:       1.4006652    1.4095538    1.4599291    1.4684591    1.4909867
:EIG00071:       1.5356550    1.6520496    1.6672742    1.7263535    1.7553552
:EIG00076:       1.9257320    1.9371219    2.0883346    2.0943888    2.2113537
:EIG00081:       2.3326864    2.3480096    2.3510990    2.3899733    2.4070839
:EIG00086:       2.4250007    2.4597110    2.4820187    2.5294221    2.5296466
:EIG00091:       2.6865704    2.7842405    2.7919012    2.8747647    2.9458000
:EIG00096:       2.9676187    2.9850694    2.9893408    2.9979070    3.0372631

:EIG00101:       3.0518973    3.0786984    3.1311310    3.1468174    3.2436002
:EIG00106:       3.2567325    3.2913890    3.3116051    3.3782296    3.3804888
:EIG00111:       3.4654512    3.5120250    3.5140923    3.5770530    3.5956285
:EIG00116:       3.6260029    3.6653202    3.7377805    3.7556976    3.7923866
:EIG00121:       3.7965295    3.8874256    4.0313478    4.0558210    4.0896291
:EIG00126:       4.0963920    4.1311884    4.1927438    4.2339005    4.2607727
:EIG00131:       4.3506604    4.3586595    4.4124458    4.4435039    4.4449909
:EIG00136:       4.4725830    4.4749545    4.5040273    4.6200303    4.6211596
:EIG00141:       4.6269238    4.6399841    4.6864790    4.7129270    4.7314077
:EIG00146:       4.7462390    4.8032065    4.8174791    4.8330933    4.8336929

:EIG00151:       4.8551227    4.9018998    4.9111039    4.9707919    4.9796577
:EIG00156:       5.0536110    5.0574913    5.0697597    5.1391736    5.1789315
:EIG00161:       5.1805248    5.2131604    5.2684922    5.2851666    5.3563281
:EIG00166:       5.3684814    5.4310497    5.4810749    5.4882603    5.4983170
       ********************************************************

:KPT   :      NUMBER OF K-POINTS:    2176
:LMAX-WF:   10   Non-Spherical LMAX:   6

          ATOMIC SPHERE DEPENDENT PARAMETERS FOR ATOM  Co1       
:e__0001: OVERALL ENERGY PARAMETER IS    0.4128
          OVERALL BASIS SET ON ATOM IS LAPW
:E1_0001: E( 1)=    0.4128
             APW+lo
:E1_0001: E( 1)=   -3.6099   E(BOTTOM)=   -3.647   E(TOP)=   -3.573  1  2   199
             LOCAL ORBITAL
:E2_0001: E( 2)=    0.5436   E(BOTTOM)=    0.289   E(TOP)=    0.798  0  1   124
             APW+lo
:E0_0001: E( 0)=    0.4128
             APW+lo

          ATOMIC SPHERE DEPENDENT PARAMETERS FOR ATOM  Co1       
:e__0002: OVERALL ENERGY PARAMETER IS    0.4128
          OVERALL BASIS SET ON ATOM IS LAPW
:E1_0002: E( 1)=    0.4128
             APW+lo
:E1_0002: E( 1)=   -3.6099   E(BOTTOM)=   -3.647   E(TOP)=   -3.573  1  2   198
             LOCAL ORBITAL
:E2_0002: E( 2)=    0.5436   E(BOTTOM)=    0.289   E(TOP)=    0.798  0  1   126
             APW+lo
:E0_0002: E( 0)=    0.4128
             APW+lo

          ATOMIC SPHERE DEPENDENT PARAMETERS FOR ATOM  Co1       
:e__0003: OVERALL ENERGY PARAMETER IS    0.4128
          OVERALL BASIS SET ON ATOM IS LAPW
:E1_0003: E( 1)=    0.4128
             APW+lo
:E1_0003: E( 1)=   -3.6099   E(BOTTOM)=   -3.647   E(TOP)=   -3.573  1  2   192
             LOCAL ORBITAL
:E2_0003: E( 2)=    0.5436   E(BOTTOM)=    0.289   E(TOP)=    0.798  0  1   125
             APW+lo
:E0_0003: E( 0)=    0.4128
             APW+lo

          ATOMIC SPHERE DEPENDENT PARAMETERS FOR ATOM  Co2       
:e__0004: OVERALL ENERGY PARAMETER IS    0.4128
          OVERALL BASIS SET ON ATOM IS LAPW
:E1_0004: E( 1)=    0.4128
             APW+lo
:E1_0004: E( 1)=   -3.6096   E(BOTTOM)=   -3.647   E(TOP)=   -3.573  1  2   194
             LOCAL ORBITAL
:E2_0004: E( 2)=    0.5424   E(BOTTOM)=    0.287   E(TOP)=    0.798  0  1   121
             APW+lo
:E0_0004: E( 0)=    0.4128
             APW+lo

          ATOMIC SPHERE DEPENDENT PARAMETERS FOR ATOM  Tb1       
:e__0005: OVERALL ENERGY PARAMETER IS    0.4128
          OVERALL BASIS SET ON ATOM IS LAPW
:E0_0005: E( 0)=    0.4128
             APW+lo
:E0_0005: E( 0)=   -2.6064   E(BOTTOM)=   -2.816   E(TOP)=   -2.397  4  5   197
             LOCAL ORBITAL
:E1_0005: E( 1)=    0.8128
             APW+lo
:E1_0005: E( 1)=   -0.9263   E(BOTTOM)=   -1.379   E(TOP)=   -0.474  3  4   171
             LOCAL ORBITAL
:E3_0005: E( 3)=    0.6252   E(BOTTOM)=    0.545   E(TOP)=    0.705  0  1   115
             APW+lo
:E2_0005: E( 2)=    0.4128   E(BOTTOM)=    0.367   E(TOP)= -520.000  2 -1    83
             APW+lo

       K=  0.031250  0.031250  0.029412            1
:RKM  : MATRIX SIZE   653LOs:  80  RKM= 9.00  WEIGHT= 2.00  PGR:    
       EIGENVALUES ARE:
:EIG00001:      -3.6169917   -3.6157876   -3.6066048   -3.6065432   -3.6059599
:EIG00006:      -3.6022699   -3.6021139   -3.6005010   -3.6004442   -3.5984496
:EIG00011:      -3.5984279   -3.5946287   -3.5945243   -3.5945046   -3.5937551
:EIG00016:      -2.5696080   -0.9029826   -0.9018399   -0.9017835    0.0428673
:EIG00021:       0.3322829    0.3805373    0.3859905    0.3988677    0.4256247
:EIG00026:       0.4257059    0.4283250    0.4544374    0.4549375    0.4560884
:EIG00031:       0.5123825    0.5130830    0.5403316    0.5417404    0.5867386
:EIG00036:       0.5932940    0.5936986    0.6137602    0.6141751    0.6162491
:EIG00041:       0.6163928    0.6175605    0.6256982    0.6287156    0.6299177
:EIG00046:       0.6306184    0.6497379    0.6499617    0.6669650    0.6950788

:EIG00051:       0.7009257    0.7035377    0.7452981    0.7467855    0.7791780
:EIG00056:       0.8026448    0.8078515    0.8364117    0.8485628    0.9861081
:EIG00061:       0.9896257    1.2476678    1.2973507    1.2994536    1.4071413
:EIG00066:       1.4279141    1.4446406    1.4799484    1.4938561    1.5203844
:EIG00071:       1.5684462    1.6713032    1.6905323    1.7383609    1.7582469
:EIG00076:       1.9398088    1.9508832    2.1249398    2.1300894    2.2258750
:EIG00081:       2.3193919    2.3351981    2.3459349    2.3955543    2.4079328
:EIG00086:       2.4311834    2.4671479    2.4918217    2.5373791    2.5391512
:EIG00091:       2.6732277    2.7804914    2.7905633    2.8548344    2.9539493
:EIG00096:       2.9773678    2.9838587    3.0209768    3.0231609    3.0255250

:EIG00101:       3.0673684    3.0771269    3.1206072    3.1357385    3.2391955
:EIG00106:       3.2502755    3.2843993    3.3107279    3.3884547    3.3911842
:EIG00111:       3.4690888    3.5156023    3.5238378    3.5770488    3.5942429
:EIG00116:       3.6279022    3.6664857    3.7355240    3.7584109    3.7992529
:EIG00121:       3.7996521    3.8952430    4.0347679    4.0696769    4.0978161
:EIG00126:       4.1021402    4.1249117    4.1936827    4.2433432    4.2834190
:EIG00131:       4.3488269    4.3580419    4.4106740    4.4392646    4.4469797
:EIG00136:       4.4847809    4.4890246    4.5070611    4.6083870    4.6216803
:EIG00141:       4.6297444    4.6357918    4.6834623    4.7141244    4.7203318
:EIG00146:       4.7316886    4.7946336    4.8120735    4.8210829    4.8252278

:EIG00151:       4.8436878    4.8937237    4.9075100    4.9726789    4.9812598
:EIG00156:       5.0533441    5.0568342    5.0662860    5.1474192    5.1811013
:EIG00161:       5.1819517    5.2154409    5.2718061    5.2894680    5.3698358
:EIG00166:       5.3830757    5.4255199    5.4848002    5.4941822    5.5023856
       ********************************************************

:KPT   :      NUMBER OF K-POINTS:    2176
  Potential not averaged when calculating dV/dr
   0.0   0.0 angle (M,z), angle (M,x) deg

        SPIN-ORBIT EIGENVALUES:
     K=  0.031250  0.031250  0.029412            1
      MATRIX SIZE=  340   WEIGHT= 2.00
     EIGENVALUES ARE:
          -3.8089666   -3.8079619   -3.8017260   -3.7984628   -3.7960298
          -3.7818188   -3.7748116   -3.7706763   -3.7705347   -3.7637499
          -3.6991543   -3.6983497   -3.6908727   -3.6884707   -3.6860592
          -3.6183667   -3.6169120   -3.6153683   -3.6145485   -3.6076476
          -3.5956892   -3.5856444   -3.5828343   -3.5825951   -3.5741185
          -3.5606964   -3.5592864   -3.5565295   -3.5551082   -3.5505645
          -2.7500510   -2.5696080   -1.2031669   -1.1644020   -0.9229971
          -0.8736411   -0.8366623   -0.8089609    0.0385718    0.0428773

           0.2518527    0.2863172    0.2915990    0.2949800    0.3016069
           0.3126763    0.3209892    0.3312085    0.3316030    0.3324648
           0.3334253    0.3364657    0.3436189    0.3439094    0.3556876
           0.3619435    0.3624093    0.3804688    0.3859074    0.3901728
           0.3987230    0.4179763    0.4219181    0.4251641    0.4255303
           0.4283484    0.4453083    0.4477955    0.4535364    0.4548511
           0.4563276    0.4679219    0.4691625    0.4732172    0.4907144
           0.4929934    0.4988298    0.5110608    0.5143740    0.5146419

           0.5189985    0.5393333    0.5429321    0.5718966    0.5751749
           0.5767828    0.5870749    0.5910667    0.5963563    0.6088030
           0.6095451    0.6114425    0.6195505    0.6247240    0.6271052
           0.6276702    0.6303143    0.6328148    0.6363683    0.6578088
           0.6672615    0.6752599    0.6949656    0.6969304    0.7010960
           0.7038405    0.7172506    0.7343023    0.7453419    0.7478162
           0.7540770    0.7792515    0.8020144    0.8054952    0.8082379
           0.8147027    0.8366535    0.8493484    0.9278409    0.9384231

           0.9830148    0.9922993    1.1953901    1.2364169    1.2476922
           1.2525422    1.2912127    1.3056653    1.3769067    1.4005363
           1.4068835    1.4095996    1.4278471    1.4435829    1.4592766
           1.4662498    1.4791849    1.4932000    1.4939880    1.5215320
           1.5357081    1.5684124    1.6520889    1.6673293    1.6712596
           1.6904587    1.7279312    1.7393614    1.7554939    1.7584044

       ********************************************************
:GAP (global)   :    0.0    Ry =     0.0   eV (metal)
:GAP (this spin):    0.0    Ry =     0.0   eV (metal)
         Bandranges (emin - emax) and occupancy:
:BAN00085:  85    0.516512    0.575864  1.00000000
:BAN00086:  86    0.521208    0.577919  1.00000000
:BAN00087:  87    0.529848    0.589020  1.00000000
:BAN00088:  88    0.537478    0.601730  1.00000000
:BAN00089:  89    0.540284    0.606899  1.00000000
:BAN00090:  90    0.549064    0.609351  1.00000000
:BAN00091:  91    0.559475    0.610330  1.00000000
:BAN00092:  92    0.576640    0.613544  0.99927648
:BAN00093:  93    0.588391    0.620061  0.96640530
:BAN00094:  94    0.593678    0.625703  0.84670731
:BAN00095:  95    0.609560    0.627105  0.18761130
:BAN00096:  96    0.613171    0.629187  0.00000000
:BAN00097:  97    0.615307    0.636449  0.00000000
:BAN00098:  98    0.618907    0.639717  0.00000000
:BAN00099:  99    0.625310    0.645631  0.00000000
:BAN00100: 100    0.630622    0.667559  0.00000000
        Energy to separate low and high energystates:   -0.01284


:NOE  : NUMBER OF ELECTRONS          =   94.000

:FER  : F E R M I - ENERGY(TETRAH.M.)=   0.6127732838
:GMA  : POTENTIAL AND CHARGE CUT-OFF  16.00 Ry**.5
 
:POS001: ATOM   -1 X,Y,Z = 0.50000 0.00000 0.50000  MULT= 1  ZZ= 27.000  Co1
 
       LMMAX 16
       LM=   0 0  2 0  2 2 -2 2  4 0  4 2 -4 2  4 4 -4 4  6 0  6 2 -6 2  6 4 -6 4  6 6 -6 6
 
:CHA001: TOTAL VALENCE CHARGE INSIDE SPHERE   1 =   7.8068    (RMT=  2.3000 )
:PCS001: PARTIAL CHARGES SPHERE =  1 S,P,D,F,PX,PY,PZ,D-Z2,D-X2Y2,D-XY,D-XZ,D-YZ
:QTL001: 0.2272 3.1787 4.3842 0.0126 1.0498 1.0686 1.0605 0.8653 0.8778 0.8817 0.8884 0.8715
        Q-s-low E-s-low   Q-p-low E-p-low   Q-d-low E-d-low   Q-f-low E-f-low
:EPL001:  0.0000 10.0000    2.9952 -3.7398    0.0000 10.0000    0.0000 10.0000
        Q-s-hi  E-s-hi    Q-p-hi  E-p-hi    Q-d-hi  E-d-hi    Q-f-hi  E-f-hi
:EPH001:  0.2267  0.2771    0.1835  0.4040    4.3830  0.4395    0.0124  0.4339
 
                      QXX         QXY         QYY         QZZ       UP TO R
:VZZ001:             0.93350    -2.06311    -1.48583     0.55237       2.300
 
:POS002: ATOM   -2 X,Y,Z = 0.00000 0.50000 0.50000  MULT= 1  ZZ= 27.000  Co1
 
       LMMAX 16
       LM=   0 0  2 0  2 2 -2 2  4 0  4 2 -4 2  4 4 -4 4  6 0  6 2 -6 2  6 4 -6 4  6 6 -6 6
 
:CHA002: TOTAL VALENCE CHARGE INSIDE SPHERE   2 =   7.8063    (RMT=  2.3000 )
:PCS002: PARTIAL CHARGES SPHERE =  2 S,P,D,F,PX,PY,PZ,D-Z2,D-X2Y2,D-XY,D-XZ,D-YZ
:QTL002: 0.2273 3.1788 4.3841 0.0122 1.0777 1.0405 1.0606 0.8648 0.8845 0.8753 0.8632 0.8964
        Q-s-low E-s-low   Q-p-low E-p-low   Q-d-low E-d-low   Q-f-low E-f-low
:EPL002:  0.0000 10.0000    2.9952 -3.7398    0.0000 10.0000    0.0000 10.0000
        Q-s-hi  E-s-hi    Q-p-hi  E-p-hi    Q-d-hi  E-d-hi    Q-f-hi  E-f-hi
:EPH002:  0.2266  0.2771    0.1835  0.4041    4.3834  0.4395    0.0120  0.4340
 
                      QXX         QXY         QYY         QZZ       UP TO R
:VZZ002:            -2.66774     0.01604     2.11539     0.55237       2.300
 
:POS003: ATOM   -3 X,Y,Z = 0.50000 0.50000 0.50000  MULT= 1  ZZ= 27.000  Co1
 
       LMMAX 16
       LM=   0 0  2 0  2 2 -2 2  4 0  4 2 -4 2  4 4 -4 4  6 0  6 2 -6 2  6 4 -6 4  6 6 -6 6
 
:CHA003: TOTAL VALENCE CHARGE INSIDE SPHERE   3 =   7.8062    (RMT=  2.3000 )
:PCS003: PARTIAL CHARGES SPHERE =  3 S,P,D,F,PX,PY,PZ,D-Z2,D-X2Y2,D-XY,D-XZ,D-YZ
:QTL003: 0.2275 3.1787 4.3839 0.0126 1.0499 1.0687 1.0605 0.8653 0.8773 0.8818 0.8883 0.8714
        Q-s-low E-s-low   Q-p-low E-p-low   Q-d-low E-d-low   Q-f-low E-f-low
:EPL003:  0.0000 10.0000    2.9952 -3.7398    0.0000 10.0000    0.0000 10.0000
        Q-s-hi  E-s-hi    Q-p-hi  E-p-hi    Q-d-hi  E-d-hi    Q-f-hi  E-f-hi
:EPH003:  0.2270  0.2772    0.1835  0.4042    4.3832  0.4395    0.0124  0.4339
 
                      QXX         QXY         QYY         QZZ       UP TO R
:VZZ003:             0.93693     2.08387    -1.46929     0.53238       2.300
 
:POS004: ATOM   -4 X,Y,Z = 0.33333 0.66667 0.00000  MULT= 2  ZZ= 27.000  Co2
 
       LMMAX 28
       LM=   0 0  1 1 -1 1  2 0  2 2 -2 2  3 1 -3 1  3 3 -3 3  4 0  4 2 -4 2  4 4 -4 4  5 1 -5 1
         5 3 -5 3  5 5 -5 5  6 0  6 2 -6 2  6 4 -6 4  6 6 -6 6
 
:CHA004: TOTAL VALENCE CHARGE INSIDE SPHERE   4 =   7.7952    (RMT=  2.3000 )
:PCS004: PARTIAL CHARGES SPHERE =  4 S,P,D,F,PX,PY,PZ,D-Z2,D-X2Y2,D-XY,D-XZ,D-YZ
:QTL004: 0.2286 3.1704 4.3806 0.0120 1.0476 1.0474 1.0751 0.8771 0.8837 0.8840 0.8678 0.8673
        Q-s-low E-s-low   Q-p-low E-p-low   Q-d-low E-d-low   Q-f-low E-f-low
:EPL004:  0.0011 -1.1204    2.9952 -3.7349    0.0013 -1.3443    0.0000 10.0000
        Q-s-hi  E-s-hi    Q-p-hi  E-p-hi    Q-d-hi  E-d-hi    Q-f-hi  E-f-hi
:EPH004:  0.2275  0.2891    0.1742  0.4028    4.3787  0.4409    0.0105  0.4364
 
                      QXX         QXY         QYY         QZZ       UP TO R
:VZZ004:             1.25374     0.00448     1.24857    -2.50234       2.300
 
:POS005: ATOM   -5 X,Y,Z = 0.00000 0.00000 0.00000  MULT= 1  ZZ= 65.000  Tb1
 
       LMMAX 16
       LM=   0 0  2 0  2 2 -2 2  4 0  4 2 -4 2  4 4 -4 4  6 0  6 2 -6 2  6 4 -6 4  6 6 -6 6
 
:CHA005: TOTAL VALENCE CHARGE INSIDE SPHERE   5 =  11.1081    (RMT=  2.5000 )
:PCS005: PARTIAL CHARGES SPHERE =  5 S,P,D,F,PX,PY,PZ,D-Z2,D-X2Y2,D-XY,D-XZ,D-YZ
:QTL005: 1.0492 2.8838 0.2756 6.8975 0.9628 0.9633 0.9577 0.0440 0.0669 0.0667 0.0486 0.0486
        Q-s-low E-s-low   Q-p-low E-p-low   Q-d-low E-d-low   Q-f-low E-f-low
:EPL005:  0.9856 -2.7498    2.8032 -1.0343    0.0000 10.0000    0.0000 10.0000
        Q-s-hi  E-s-hi    Q-p-hi  E-p-hi    Q-d-hi  E-d-hi    Q-f-hi  E-f-hi
:EPH005:  0.0632  0.3211    0.0812  0.3823    0.2756  0.4181    6.8975  0.3123
 
                      QXX         QXY         QYY         QZZ       UP TO R
:VZZ005:            -1.93687    -0.00838    -1.92737     3.86424       2.500
 
:CHA  : TOTAL VALENCE CHARGE INSIDE UNIT CELL =      53.537878
 
:SUM  : SUM OF EIGENVALUES =         -48.073537610
 
:GAP (global)   :    0.0    Ry =     0.0   eV (metal)
:GAP (this spin):    0.0    Ry =     0.0   eV (metal)
         Bandranges (emin - emax) and occupancy:
:BAN00085:  85    0.516512    0.575864  1.00000000
:BAN00086:  86    0.521208    0.577919  1.00000000
:BAN00087:  87    0.529848    0.589020  1.00000000
:BAN00088:  88    0.537478    0.601730  1.00000000
:BAN00089:  89    0.540284    0.606899  1.00000000
:BAN00090:  90    0.549064    0.609351  1.00000000
:BAN00091:  91    0.559475    0.610330  1.00000000
:BAN00092:  92    0.576640    0.613544  0.99927648
:BAN00093:  93    0.588391    0.620061  0.96640530
:BAN00094:  94    0.593678    0.625703  0.84670731
:BAN00095:  95    0.609560    0.627105  0.18761130
:BAN00096:  96    0.613171    0.629187  0.00000000
:BAN00097:  97    0.615307    0.636449  0.00000000
:BAN00098:  98    0.618907    0.639717  0.00000000
:BAN00099:  99    0.625310    0.645631  0.00000000
:BAN00100: 100    0.630622    0.667559  0.00000000
        Energy to separate low and high energystates:   -0.01284


:NOE  : NUMBER OF ELECTRONS          =   94.000

:FER  : F E R M I - ENERGY(TETRAH.M.)=   0.6127732838
:GMA  : POTENTIAL AND CHARGE CUT-OFF  16.00 Ry**.5
 
:POS001: ATOM   -1 X,Y,Z = 0.50000 0.00000 0.50000  MULT= 1  ZZ= 27.000  Co1
 
       LMMAX 16
       LM=   0 0  2 0  2 2 -2 2  4 0  4 2 -4 2  4 4 -4 4  6 0  6 2 -6 2  6 4 -6 4  6 6 -6 6
 
:CHA001: TOTAL VALENCE CHARGE INSIDE SPHERE   1 =   6.2184    (RMT=  2.3000 )
:PCS001: PARTIAL CHARGES SPHERE =  1 S,P,D,F,PX,PY,PZ,D-Z2,D-X2Y2,D-XY,D-XZ,D-YZ
:QTL001: 0.2318 3.2106 2.7614 0.0118 1.0601 1.0773 1.0731 0.6058 0.5658 0.5375 0.4998 0.5519
        Q-s-low E-s-low   Q-p-low E-p-low   Q-d-low E-d-low   Q-f-low E-f-low
:EPL001:  0.0000 10.0000    2.9952 -3.6019    0.0000 10.0000    0.0000 10.0000
        Q-s-hi  E-s-hi    Q-p-hi  E-p-hi    Q-d-hi  E-d-hi    Q-f-hi  E-f-hi
:EPH001:  0.2308  0.2913    0.2157  0.4455    2.7602  0.4954    0.0115  0.5017
 
                      QXX         QXY         QYY         QZZ       UP TO R
:VZZ001:             1.37912    -1.23916    -0.03909    -1.34002       2.300
 
:POS002: ATOM   -2 X,Y,Z = 0.00000 0.50000 0.50000  MULT= 1  ZZ= 27.000  Co1
 
       LMMAX 16
       LM=   0 0  2 0  2 2 -2 2  4 0  4 2 -4 2  4 4 -4 4  6 0  6 2 -6 2  6 4 -6 4  6 6 -6 6
 
:CHA002: TOTAL VALENCE CHARGE INSIDE SPHERE   2 =   6.2183    (RMT=  2.3000 )
:PCS002: PARTIAL CHARGES SPHERE =  2 S,P,D,F,PX,PY,PZ,D-Z2,D-X2Y2,D-XY,D-XZ,D-YZ
:QTL002: 0.2314 3.2105 2.7611 0.0118 1.0859 1.0517 1.0728 0.6059 0.5227 0.5807 0.5781 0.4738
        Q-s-low E-s-low   Q-p-low E-p-low   Q-d-low E-d-low   Q-f-low E-f-low
:EPL002:  0.0000 10.0000    2.9952 -3.6019    0.0000 10.0000    0.0000 10.0000
        Q-s-hi  E-s-hi    Q-p-hi  E-p-hi    Q-d-hi  E-d-hi    Q-f-hi  E-f-hi
:EPH002:  0.2311  0.2913    0.2157  0.4455    2.7604  0.4954    0.0114  0.5018
 
                      QXX         QXY         QYY         QZZ       UP TO R
:VZZ002:            -0.75767    -0.00546     2.09768    -1.33999       2.300
 
:POS003: ATOM   -3 X,Y,Z = 0.50000 0.50000 0.50000  MULT= 1  ZZ= 27.000  Co1
 
       LMMAX 16
       LM=   0 0  2 0  2 2 -2 2  4 0  4 2 -4 2  4 4 -4 4  6 0  6 2 -6 2  6 4 -6 4  6 6 -6 6
 
:CHA003: TOTAL VALENCE CHARGE INSIDE SPHERE   3 =   6.2183    (RMT=  2.3000 )
:PCS003: PARTIAL CHARGES SPHERE =  3 S,P,D,F,PX,PY,PZ,D-Z2,D-X2Y2,D-XY,D-XZ,D-YZ
:QTL003: 0.2315 3.2105 2.7613 0.0118 1.0601 1.0774 1.0728 0.6056 0.5663 0.5372 0.4998 0.5520
        Q-s-low E-s-low   Q-p-low E-p-low   Q-d-low E-d-low   Q-f-low E-f-low
:EPL003:  0.0000 10.0000    2.9952 -3.6018    0.0000 10.0000    0.0000 10.0000
        Q-s-hi  E-s-hi    Q-p-hi  E-p-hi    Q-d-hi  E-d-hi    Q-f-hi  E-f-hi
:EPH003:  0.2308  0.2914    0.2157  0.4455    2.7605  0.4954    0.0115  0.5018
 
                      QXX         QXY         QYY         QZZ       UP TO R
:VZZ003:             1.36962     1.22603    -0.04613    -1.32345       2.300
 
:POS004: ATOM   -4 X,Y,Z = 0.33333 0.66667 0.00000  MULT= 2  ZZ= 27.000  Co2
 
       LMMAX 28
       LM=   0 0  1 1 -1 1  2 0  2 2 -2 2  3 1 -3 1  3 3 -3 3  4 0  4 2 -4 2  4 4 -4 4  5 1 -5 1
         5 3 -5 3  5 5 -5 5  6 0  6 2 -6 2  6 4 -6 4  6 6 -6 6
 
:CHA004: TOTAL VALENCE CHARGE INSIDE SPHERE   4 =   6.2399    (RMT=  2.3000 )
:PCS004: PARTIAL CHARGES SPHERE =  4 S,P,D,F,PX,PY,PZ,D-Z2,D-X2Y2,D-XY,D-XZ,D-YZ
:QTL004: 0.2260 3.2057 2.7936 0.0124 1.0592 1.0596 1.0864 0.5466 0.5778 0.5782 0.5455 0.5453
        Q-s-low E-s-low   Q-p-low E-p-low   Q-d-low E-d-low   Q-f-low E-f-low
:EPL004:  0.0024 -1.0097    2.9952 -3.6003    0.0024 -1.2483    0.0000 10.0000
        Q-s-hi  E-s-hi    Q-p-hi  E-p-hi    Q-d-hi  E-d-hi    Q-f-hi  E-f-hi
:EPH004:  0.2238  0.2931    0.2091  0.4470    2.7919  0.4969    0.0106  0.5119
 
                      QXX         QXY         QYY         QZZ       UP TO R
:VZZ004:             0.22615    -0.00512     0.23203    -0.45818       2.300
 
:POS005: ATOM   -5 X,Y,Z = 0.00000 0.00000 0.00000  MULT= 1  ZZ= 65.000  Tb1
 
       LMMAX 16
       LM=   0 0  2 0  2 2 -2 2  4 0  4 2 -4 2  4 4 -4 4  6 0  6 2 -6 2  6 4 -6 4  6 6 -6 6
 
:CHA005: TOTAL VALENCE CHARGE INSIDE SPHERE   5 =   5.4187    (RMT=  2.5000 )
:PCS005: PARTIAL CHARGES SPHERE =  5 S,P,D,F,PX,PY,PZ,D-Z2,D-X2Y2,D-XY,D-XZ,D-YZ
:QTL005: 1.0496 2.8729 0.3458 1.1485 0.9590 0.9598 0.9540 0.0555 0.0801 0.0800 0.0655 0.0657
        Q-s-low E-s-low   Q-p-low E-p-low   Q-d-low E-d-low   Q-f-low E-f-low
:EPL005:  0.9824 -2.5693    2.7642 -0.9121    0.0000 10.0000    0.0000 10.0000
        Q-s-hi  E-s-hi    Q-p-hi  E-p-hi    Q-d-hi  E-d-hi    Q-f-hi  E-f-hi
:EPH005:  0.0661  0.3318    0.1081  0.4316    0.3458  0.4670    1.1485  0.5783
 
                      QXX         QXY         QYY         QZZ       UP TO R
:VZZ005:            -5.95049     0.00829    -5.96043    11.91096       2.500
 
:CHA  : TOTAL VALENCE CHARGE INSIDE UNIT CELL =      40.462124
 
:SUM  : SUM OF EIGENVALUES =         -49.176602227
 
 Spin-polarized + s-o calculation, M||  0.000  0.000  1.000
 irtest           1           5   2.5000000000000031
 Density matrix UPUP block, real part.  L= 3                                   
         0.98663  0.00000  0.00001  0.00000 -0.00001  0.00000  0.00099
         0.00000  0.98502  0.00000  0.00002  0.00000 -0.00002  0.00000
         0.00001  0.00000  0.98290  0.00000  0.00001  0.00000  0.00003
         0.00000  0.00002  0.00000  0.98491  0.00000 -0.00003  0.00000
        -0.00001  0.00000  0.00001  0.00000  0.98329  0.00000 -0.00000
         0.00000 -0.00002  0.00000 -0.00003  0.00000  0.98677  0.00000
         0.00099  0.00000  0.00003  0.00000 -0.00000  0.00000  0.98803
 Density matrix UPUP block, imag part 
         0.00000  0.00000 -0.00002  0.00000 -0.00002  0.00000  0.00000
         0.00000  0.00000  0.00000  0.00000  0.00000  0.00001  0.00000
         0.00002  0.00000  0.00000  0.00000  0.00002  0.00000 -0.00001
         0.00000 -0.00000  0.00000  0.00000  0.00000  0.00001  0.00000
         0.00002  0.00000 -0.00002  0.00000  0.00000  0.00000 -0.00001
         0.00000 -0.00001  0.00000 -0.00001  0.00000  0.00000  0.00000
         0.00000  0.00000  0.00001  0.00000  0.00001  0.00000  0.00000
 
:TRA005:  TRACE of UPUP MATRIX=   6.89758   0.00000
:POM005UP:Partial ORBITAL MOMENT in global orthog. system=  0.00000  0.00000  0.00819
 
 
 Density matrix UPDN block, real part.  L= 3                                   
         0.00000 -0.05690  0.00000  0.00001  0.00000 -0.00004  0.00000
        -0.00003  0.00000 -0.07112  0.00000  0.00004  0.00000 -0.00000
         0.00000  0.00001  0.00000 -0.08229  0.00000  0.00000  0.00000
        -0.00001  0.00000 -0.00002  0.00000 -0.06012  0.00000 -0.00001
         0.00000  0.00003  0.00000  0.00004  0.00000 -0.07200  0.00001
        -0.00758  0.00000  0.00002  0.00000  0.00000  0.00001 -0.04206
         0.00000  0.00160  0.00000 -0.00001  0.00000  0.00001  0.00000
 Density matrix UPDN block, imag part 
         0.00000  0.00000  0.00000 -0.00002  0.00000  0.00001  0.00000
         0.00001  0.00000 -0.00001  0.00000 -0.00001  0.00000  0.00004
         0.00000 -0.00004  0.00000  0.00000  0.00000  0.00003  0.00000
         0.00002  0.00000 -0.00001  0.00000  0.00000  0.00000 -0.00001
         0.00000  0.00000  0.00000 -0.00002  0.00000  0.00000  0.00000
         0.00000  0.00000  0.00001  0.00000 -0.00001  0.00000  0.00000
         0.00000  0.00000  0.00000  0.00001  0.00000  0.00002  0.00000
 
:TRA005:  TRACE of UPDN MATRIX=   0.00000   0.00000
 
 
 Density matrix DNDN block, real part.  L= 3                                   
         0.09226  0.00000  0.00001  0.00000 -0.00002 -0.00006 -0.14516
         0.00000  0.03712  0.00000  0.00002  0.00002  0.00002  0.00000
         0.00001  0.00000  0.09961  0.00000  0.00006  0.00001  0.00002
         0.00000  0.00002  0.00000  0.04780  0.00000  0.00004  0.00001
        -0.00002  0.00002  0.00006  0.00000  0.34001  0.00002  0.00001
        -0.00006  0.00002  0.00001  0.00004  0.00002  0.16082  0.00016
        -0.14516  0.00000  0.00002  0.00001  0.00001  0.00016  0.37076
 Density matrix DNDN block, imag part 
         0.00000  0.00000  0.00002  0.00000 -0.00001  0.00005  0.00000
         0.00000  0.00000  0.00000  0.00000  0.00001  0.00001  0.00000
        -0.00002  0.00000  0.00000  0.00000 -0.00010  0.00004  0.00007
         0.00000 -0.00000  0.00000  0.00000  0.00002 -0.00006  0.00000
         0.00001 -0.00001  0.00010 -0.00002  0.00000  0.00002 -0.00003
        -0.00005 -0.00001 -0.00004  0.00006 -0.00002  0.00000  0.00021
         0.00000  0.00000 -0.00007  0.00000  0.00003 -0.00021  0.00000
 
:TRA005:  TRACE of DNDN MATRIX=   1.14832   0.00000
:POM005DN:Partial ORBITAL MOMENT in global orthog. system=  0.00036 -0.00062  1.32325
 
 
 
:ORB005:  ORBITAL MOMENT:  0.00037 -0.00062  1.33144 PROJECTION ON M  1.33144
:SPI005:  SPIN MOMENT:   0.00001  -0.00002   5.74923 PROJECTION ON M  5.74923

        1.ATOM      Co1                   5 CORE STATES
:1S 001: 1S                -556.817048381 Ry
:2S 001: 2S                 -64.942496125 Ry
:2PP001: 2P*                -56.179826554 Ry
:2P 001: 2P                 -55.091016940 Ry
:3S 001: 3S                  -6.440657185 Ry

        2.ATOM      Co1                   5 CORE STATES
:1S 002: 1S                -556.817048752 Ry
:2S 002: 2S                 -64.942496447 Ry
:2PP002: 2P*                -56.179826893 Ry
:2P 002: 2P                 -55.091017277 Ry
:3S 002: 3S                  -6.440657483 Ry

        3.ATOM      Co1                   5 CORE STATES
:1S 003: 1S                -556.817020801 Ry
:2S 003: 2S                 -64.942470474 Ry
:2PP003: 2P*                -56.179802425 Ry
:2P 003: 2P                 -55.090992690 Ry
:3S 003: 3S                  -6.440610687 Ry

        4.ATOM      Co2                   5 CORE STATES
       CORE-FORCE in mRy/a.u. = |F|      Fx             Fy             Fz
:FCO004:   4.ATOM      1.294140139778     -0.649625699897      1.119278853289      0.000000000000

:1S 004: 1S                -556.814679811 Ry
:2S 004: 2S                 -64.937281826 Ry
:2PP004: 2P*                -56.175046815 Ry
:2P 004: 2P                 -55.086197911 Ry
:3S 004: 3S                  -6.436247692 Ry

        5.ATOM      Tb1                  14 CORE STATES
:1S 005: 1S               -3807.005816439 Ry
:2S 005: 2S                -630.217186292 Ry
:2PP005: 2P*               -598.802993481 Ry
:2P 005: 2P                -543.930218018 Ry
:3S 005: 3S                -139.410123293 Ry
:3PP005: 3P*               -125.755816899 Ry
:3P 005: 3P                -114.440176248 Ry
:3DD005: 3D*                -90.930153555 Ry
:3D 005: 3D                 -88.462536539 Ry
:4S 005: 4S                 -27.285363570 Ry
:4PP005: 4P*                -21.937237274 Ry
:4P 005: 4P                 -19.405913871 Ry
:4DD005: 4D*                -10.600504897 Ry
:4D 005: 4D                 -10.141386872 Ry

        1.ATOM      Co1                   5 CORE STATES
:1S 001: 1S                -556.817548618 Ry
:2S 001: 2S                 -64.875350737 Ry
:2PP001: 2P*                -56.130335940 Ry
:2P 001: 2P                 -55.039957653 Ry
:3S 001: 3S                  -6.299051944 Ry

        2.ATOM      Co1                   5 CORE STATES
:1S 002: 1S                -556.817548990 Ry
:2S 002: 2S                 -64.875351227 Ry
:2PP002: 2P*                -56.130336402 Ry
:2P 002: 2P                 -55.039958117 Ry
:3S 002: 3S                  -6.299052570 Ry

        3.ATOM      Co1                   5 CORE STATES
:1S 003: 1S                -556.817519241 Ry
:2S 003: 2S                 -64.875342350 Ry
:2PP003: 2P*                -56.130323767 Ry
:2P 003: 2P                 -55.039945807 Ry
:3S 003: 3S                  -6.299041478 Ry

        4.ATOM      Co2                   5 CORE STATES
       CORE-FORCE in mRy/a.u. = |F|      Fx             Fy             Fz
:FCO004:   4.ATOM      1.313959970210     -0.659544569592      1.136438191912      0.000000000000

:1S 004: 1S                -556.815145374 Ry
:2S 004: 2S                 -64.871903758 Ry
:2PP004: 2P*                -56.126865494 Ry
:2P 004: 2P                 -55.036489412 Ry
:3S 004: 3S                  -6.298329408 Ry

        5.ATOM      Tb1                  14 CORE STATES
:1S 005: 1S               -3807.005933744 Ry
:2S 005: 2S                -630.214050982 Ry
:2PP005: 2P*               -598.801484181 Ry
:2P 005: 2P                -543.927742011 Ry
:3S 005: 3S                -139.242367964 Ry
:3PP005: 3P*               -125.604813724 Ry
:3P 005: 3P                -114.266036352 Ry
:3DD005: 3D*                -90.805942997 Ry
:3D 005: 3D                 -88.332430443 Ry
:4S 005: 4S                 -26.904704567 Ry
:4PP005: 4P*                -21.557127716 Ry
:4P 005: 4P                 -19.030276854 Ry
:4DD005: 4D*                -10.227274250 Ry
:4D 005: 4D                  -9.769917718 Ry
:DMATR  1_1:    0.9866    0.9850    0.9829    0.9849    0.9833    0.9868    0.9881
:DMATR  1_2:    0.0922    0.0371    0.0996    0.0478    0.3400    0.1608    0.3708
:DMATR  1_3:    0.0000   -0.0000    0.0000    0.0000    0.0000    0.0000    0.0000
:WARNING: Density Matrix or Orbital Potential has changed
:CINT001 Core Integral Atom   1 Up    5.99961216 Dn   5.999582 Total  11.99919367
:CINT002 Core Integral Atom   2 Up    5.99961216 Dn   5.999582 Total  11.99919367
:CINT003 Core Integral Atom   3 Up    5.99961216 Dn   5.999582 Total  11.99919369
:CINT004 Core Integral Atom   4 Up    5.99960943 Dn   5.999580 Total  11.99918908
:CINT005 Core Integral Atom   5 Up   22.99997712 Dn  22.999973 Total  45.99994995

       DENSITY AT NUCLEUS
        JATOM        VALENCE       SEMI-CORE          CORE           TOTAL
:RTO001:   1        8.142527        0.000000    17496.966437    17505.108964
:RTO002:   2        8.142531        0.000000    17496.966435    17505.108966
:RTO003:   3        8.143658        0.000000    17496.966701    17505.110360
:RTO004:   4        8.088982        0.000000    17496.913518    17505.002500
:RTO005:   5     1239.208382        0.000000  1219630.196575  1220869.404957

       HYPERFINE FIELDS FOR THOMSON RADIUS
:HFF001:          -10.461           0.000        -202.000        -212.461 (KGAUSS)
:HFF002:          -10.461           0.000        -202.000        -212.461 (KGAUSS)
:HFF003:           -9.831           0.000        -201.937        -211.769 (KGAUSS)
:HFF004:           52.007           0.000        -196.488        -144.481 (KGAUSS)
:HFF005:         2512.820           0.000       -2493.650          19.170 (KGAUSS)
:K-LIST:Reduced k-vector list    19745    2293
     
       CHARGES OF NEW CHARGE DENSITY
:NTO   : INTERSTITIAL      UP =     3.419977 DN =     3.908901 TOT =     7.328879
:NPC   : INTERSTITIAL      UP =    10.531858 DN =    10.029546 TOT =    20.561404
:NTO001: CHARGE SPHERE   1 UP =   13.806150 DN =   12.218131 TOT =   26.024281
:NTO002: CHARGE SPHERE   2 UP =   13.806151 DN =   12.218142 TOT =   26.024293
:NTO003: CHARGE SPHERE   3 UP =   13.806016 DN =   12.218044 TOT =   26.024060
:NTO004: CHARGE SPHERE   4 UP =   13.794683 DN =   12.239235 TOT =   26.033918
:NTO005: CHARGE SPHERE   5 UP =   34.108251 DN =   28.418310 TOT =   62.526561

:NEC01: NUCLEAR AND ELECTRONIC CHARGE    200.00000000   199.99590953 Plane Wave
     
       CHARGES OF OLD CHARGE DENSITY
:OTO   : INTERSTITIAL      UP =     3.422289 DN =     3.910911 TOT =     7.333200
:OPC   : INTERSTITIAL      UP =    10.542464 DN =    10.035189 TOT =    20.577652
:OTO001: CHARGE SPHERE   1 UP =   13.806022 DN =   12.218341 TOT =   26.024364
:OTO002: CHARGE SPHERE   2 UP =   13.806021 DN =   12.218343 TOT =   26.024363
:OTO003: CHARGE SPHERE   3 UP =   13.805938 DN =   12.218462 TOT =   26.024400
:OTO004: CHARGE SPHERE   4 UP =   13.794512 DN =   12.239444 TOT =   26.033956
:OTO005: CHARGE SPHERE   5 UP =   34.107755 DN =   28.418007 TOT =   62.525761

:NEC02: NUCLEAR AND ELECTRONIC CHARGE    200.00000000   200.00000000
     
       CONVERGENCE TEST
:DTO001: DIFFERENCE SPHERE  1 UP =  0.0002810 DN =  0.0002336 TOT =  0.0005145
:DTO002: DIFFERENCE SPHERE  2 UP =  0.0002842 DN =  0.0002229 TOT =  0.0005071
:DTO003: DIFFERENCE SPHERE  3 UP =  0.0002225 DN =  0.0004659 TOT =  0.0006884
:DTO004: DIFFERENCE SPHERE  4 UP =  0.0003417 DN =  0.0002147 TOT =  0.0005564
:DTO005: DIFFERENCE SPHERE  5 UP =  0.0005461 DN =  0.0005337 TOT =  0.0010798

:DIS  :  CHARGE DISTANCE      (  0.0005461 for atom    5 spin 1)      0.0013008
:MIX  :  PRATT  REGULARIZATION:  2.00E-04 GREED: 0.05000                 
     
       CHARGES OF MIXED CHARGE DENSITY
:CTO   : INTERSTITIAL      UP =     3.422269 DN =     3.910920 TOT =     7.333188
:CPC   : INTERSTITIAL      UP =    10.542227 DN =    10.035187 TOT =    20.577414
:CTO001: CHARGE SPHERE   1 UP =   13.806029 DN =   12.218331 TOT =   26.024360
:CTO002: CHARGE SPHERE   2 UP =   13.806027 DN =   12.218333 TOT =   26.024360
:CTO003: CHARGE SPHERE   3 UP =   13.805941 DN =   12.218441 TOT =   26.024383
:CTO004: CHARGE SPHERE   4 UP =   13.794521 DN =   12.239433 TOT =   26.033954
:CTO005: CHARGE SPHERE   5 UP =   34.107779 DN =   28.418022 TOT =   62.525801

       SPIN MAGNETIC MOMENTS OF MIXED CHARGE DENSITY
:MMINT:  MAGNETIC MOMENT IN INTERSTITIAL  =   -0.48865
:MMI001: MAGNETIC MOMENT IN SPHERE   1    =    1.58770
:MMI002: MAGNETIC MOMENT IN SPHERE   2    =    1.58769
:MMI003: MAGNETIC MOMENT IN SPHERE   3    =    1.58750
:MMI004: MAGNETIC MOMENT IN SPHERE   4    =    1.55509
:MMI005: MAGNETIC MOMENT IN SPHERE   5    =    5.68976
:MMTOT:  SPIN MAGNETIC MOMENT IN CELL     =   13.07417

:NEC03: NUCLEAR AND ELECTRONIC CHARGE    200.00000000   200.00000000

PW CHANGE     H    K    L      Current       Change    Residue
:PUP001:      0    0    0  2.44803125E-02 -4.497E-07 -8.993E-06
:PUP002:     -1    0    0  2.72301501E-03 -5.668E-09 -1.134E-07
:PUP003:     -1    1    0  2.72587807E-03 -1.687E-08 -3.373E-07
:PUP004:      0   -1    0  2.72301407E-03 -6.093E-09 -1.219E-07
:PUP005:      0    0   -1  6.34964062E-03 -9.404E-08 -1.881E-06
:PUP006:     -1    0   -1  6.87661722E-03 -1.413E-07 -2.827E-06
:PUP007:     -1    0    1  6.87666854E-03 -1.410E-07 -2.820E-06
:PUP008:     -1    1   -1  6.87613181E-03 -1.449E-07 -2.899E-06
:PUP009:     -1    1    1  6.87605806E-03 -1.436E-07 -2.873E-06
:PUP010:      0   -1   -1  6.87666756E-03 -1.411E-07 -2.822E-06
:PUP011:      0   -1    1  6.87661627E-03 -1.414E-07 -2.829E-06
:PUP012:     -2    1    0  6.28485825E-03 -1.537E-07 -3.073E-06
  
:PDN001:      0    0    0  2.44480753E-02  1.116E-08  2.232E-07
:PDN002:     -1    0    0  3.52803658E-03 -9.857E-08 -1.971E-06
:PDN003:     -1    1    0  3.52671667E-03 -1.213E-07 -2.425E-06
:PDN004:      0   -1    0  3.52804670E-03 -9.985E-08 -1.997E-06
:PDN005:      0    0   -1  6.67032229E-03 -7.465E-08 -1.493E-06
:PDN006:     -1    0   -1  6.81289913E-03 -7.520E-08 -1.504E-06
:PDN007:     -1    0    1  6.81288599E-03 -7.557E-08 -1.511E-06
:PDN008:     -1    1   -1  6.81299554E-03 -7.218E-08 -1.444E-06
:PDN009:     -1    1    1  6.81297173E-03 -7.289E-08 -1.458E-06
:PDN010:      0   -1   -1  6.81288905E-03 -7.545E-08 -1.509E-06
:PDN011:      0   -1    1  6.81290210E-03 -7.508E-08 -1.502E-06
:PDN012:     -2    1    0  6.03258164E-03 -5.265E-08 -1.053E-06
:DMATW  1_1:    0.9866    0.9850    0.9829    0.9849    0.9833    0.9868    0.9881
:DMATW  1_2:    0.0922    0.0371    0.0996    0.0478    0.3400    0.1608    0.3708
:DMATW  1_3:    0.0000   -0.0000    0.0000    0.0000    0.0000    0.0000    0.0000

:ENE  : *WARNING** TOTAL ENERGY IN Ry =       -37373.11239082

:FOR001:   1.ATOM          0.000          0.000          0.000          0.000 partial forces
:FOR002:   2.ATOM          0.000          0.000          0.000          0.000 partial forces
:FOR003:   3.ATOM          0.000          0.000          0.000          0.000 partial forces
:FOR004:   4.ATOM          0.411          0.209         -0.354          0.000 partial forces
:FOR005:   5.ATOM          0.000          0.000          0.000          0.000 partial forces
       TOTAL FORCE WITH RESPECT TO THE GLOBAL COORDINATE SYSTEM:
:FGL001:   1.ATOM                 0.000000000     0.000000000     0.000000000 partial forces
:FGL002:   2.ATOM                 0.000000000     0.000000000     0.000000000 partial forces
:FGL003:   3.ATOM                 0.000000000     0.000000000     0.000000000 partial forces
:FGL004:   4.ATOM                 0.241641644    -0.232960927     0.000000000 partial forces
:FGL005:   5.ATOM                 0.000000000     0.000000000     0.000000000 partial forces
 Euler-Maclaurian Coulomb
 Consistent 3/8+Simpson combinations at start/end
 New Mode for Coulomb Integral
 Extension of core to zero
 LDM version in phi
 Fifth-order quadrature in outwin
 Lebedev-Laikov Grid in lapw0


            ---------
:ITE073: 73. ITERATION
            ---------

:NATO :    5 INDEPENDENT AND    6 TOTAL ATOMS IN UNITCELL
       SUBSTANCE: blebleble                                s-o calc. M||  0.10

       LATTICE                      = H   
:LAT  : LATTICE CONSTANTS=  9.34658  9.34658  7.54001
:VOL  : UNIT CELL VOLUME =     570.43781
:POT  : POTENTIAL OPTION EX_PBE EC_PBE VX_PBE VC_PBE
       MODE OF CALCULATION IS       = RELA
       SPINPOLARIZED CALCULATION
:IFFT  : FFT-parameters:   96   96   80 Factor: 2.00


   CONVERGENCE PARAMETER FOR PSEUDOCHARGE: NCON=  9
   MAXIMAL VALUE OF RMT(JATOM)*ABSK(NKK) : RK  =39.99508


:VKCOUL :  VK-COUL convergence: 0.171E-09
 Lebedev grid of          350
 :rho_min:   2.0000000000000000E-008   1.0000000000000001E-009
:VCOUL001 ATOMNUMBER=  1 Co1     VCOUL-ZERO =  0.58169E+00
:EFG001:                        EFG         =     4.02851   *10**21  V / m**2
                               V20  TOT/SRF=    -0.66360     0.01181
                               V22  TOT/SRF=     1.83146    -0.05080
                               V22M TOT/SRF=    -3.15190     0.08827
                               V21  TOT/SRF=     0.00000     0.00000
                               V21M TOT/SRF=     0.00000     0.00000

              2.21460   -3.15190    0.00000        4.02851    0.00000    0.00000
             -3.15190   -1.44833    0.00000        0.00000   -3.26224    0.00000
              0.00000    0.00000   -0.76626        0.00000    0.00000   -0.76626

         MAIN DIRECTIONS OF THE EFG   1.0000  0.5755  0.0000
                                     -0.5755  1.0000  0.0000
                                      0.0000  0.0000  1.0000
:ANG001:  ANGLE WITH OLD X-AXIS =        29.9

:ETA001:                         ASYMM. ETA =     0.61958


:VCOUL002 ATOMNUMBER=  2 Co1     VCOUL-ZERO =  0.58168E+00
:EFG002:                        EFG         =     4.02845   *10**21  V / m**2
                               V20  TOT/SRF=    -0.66362     0.01181
                               V22  TOT/SRF=    -3.64530     0.10185
                               V22M TOT/SRF=     0.01014     0.00014
                               V21  TOT/SRF=     0.00000     0.00000
                               V21M TOT/SRF=     0.00000     0.00000

             -3.26215    0.01014    0.00000       -3.26217    0.00000    0.00000
              0.01014    4.02844    0.00000        0.00000    4.02845    0.00000
              0.00000    0.00000   -0.76629        0.00000    0.00000   -0.76629

         MAIN DIRECTIONS OF THE EFG   1.0000  0.0014  0.0000
                                     -0.0014  1.0000  0.0000
                                     -0.0000 -0.0000  1.0000
:ANG002:  ANGLE WITH OLD X-AXIS =         0.1

:ETA002:                         ASYMM. ETA =     0.61956


:VCOUL003 ATOMNUMBER=  3 Co1     VCOUL-ZERO =  0.58175E+00
:EFG003:                        EFG         =     4.03119   *10**21  V / m**2
                               V20  TOT/SRF=    -0.66498     0.01183
                               V22  TOT/SRF=     1.82363    -0.05096
                               V22M TOT/SRF=     3.15862    -0.08826
                               V21  TOT/SRF=     0.00000     0.00000
                               V21M TOT/SRF=     0.00000     0.00000

              2.20756    3.15862    0.00000        4.03119    0.00000    0.00000
              3.15862   -1.43970    0.00000        0.00000   -3.26333    0.00000
              0.00000    0.00000   -0.76786        0.00000    0.00000   -0.76786

         MAIN DIRECTIONS OF THE EFG   1.0000 -0.5774  0.0000
                                      0.5774  1.0000  0.0000
                                      0.0000  0.0000  1.0000
:ANG003:  ANGLE WITH OLD X-AXIS =        30.0

:ETA003:                         ASYMM. ETA =     0.61904


:VCOUL004 ATOMNUMBER=  4 Co2     VCOUL-ZERO =  0.57142E+00
:EFG004:                        EFG         =    -2.84882   *10**21  V / m**2
                               V20  TOT/SRF=    -2.46715     0.05425
                               V22  TOT/SRF=    -0.00065     0.00001
                               V22M TOT/SRF=    -0.00114     0.00001
                               V21  TOT/SRF=     0.00000     0.00000
                               V21M TOT/SRF=     0.00000     0.00000

              1.42376   -0.00114    0.00000        1.42309    0.00000    0.00000
             -0.00114    1.42506    0.00000        0.00000    1.42573    0.00000
              0.00000    0.00000   -2.84882        0.00000    0.00000   -2.84882

         MAIN DIRECTIONS OF THE EFG   1.0000 -0.5801  0.0000
                                      0.5801  1.0000  0.0000
                                     -0.0000 -0.0000  1.0000
:ANG004:  ANGLE WITH OLD X-AXIS =        30.1

:ETA004:                         ASYMM. ETA =     0.00092


:VCOUL005 ATOMNUMBER=  5 Tb1     VCOUL-ZERO =  0.36450E+00
:EFG005:                        EFG         =    15.73912   *10**21  V / m**2
                               V20  TOT/SRF=    13.63048     0.01637
                               V22  TOT/SRF=    -0.01083    -0.00005
                               V22M TOT/SRF=    -0.01841    -0.00008
                               V21  TOT/SRF=     0.00000     0.00000
                               V21M TOT/SRF=     0.00000     0.00000

             -7.88039   -0.01841    0.00000       -7.89092    0.00000    0.00000
             -0.01841   -7.85872    0.00000        0.00000   -7.84819    0.00000
              0.00000    0.00000   15.73912        0.00000    0.00000   15.73912

         MAIN DIRECTIONS OF THE EFG   1.0000 -0.5719  0.0000
                                      0.5719  1.0000  0.0000
                                     -0.0000 -0.0000  1.0000
:ANG005:  ANGLE WITH OLD X-AXIS =        29.8

:ETA005:                         ASYMM. ETA =     0.00271


     HELLMANN-FEYNMAN-FORCE IN mRy/a.u. = |F|  Fx       Fy             Fz
:FHF001:   1.ATOM      0.000000000000      0.000000000000      0.000000000000      0.000000000000

     HELLMANN-FEYNMAN-FORCE IN mRy/a.u. = |F|  Fx       Fy             Fz
:FHF002:   2.ATOM      0.000000000000      0.000000000000      0.000000000000      0.000000000000

     HELLMANN-FEYNMAN-FORCE IN mRy/a.u. = |F|  Fx       Fy             Fz
:FHF003:   3.ATOM      0.000000000000      0.000000000000      0.000000000000      0.000000000000

     HELLMANN-FEYNMAN-FORCE IN mRy/a.u. = |F|  Fx       Fy             Fz
:FHF004:   4.ATOM      1.673358885486      0.841411878254     -1.446428709190      0.000000000000

     HELLMANN-FEYNMAN-FORCE IN mRy/a.u. = |F|  Fx       Fy             Fz
:FHF005:   5.ATOM      0.000000000000      0.000000000000      0.000000000000      0.000000000000

:FIT001: LUSE= 13 SIGMA OF V-XC FIT FOR ATOM  1  0.4950617E-03
:FIT001: LUSE= 13 SIGMA OF V-XC FIT FOR ATOM  1  0.1152205E-02
:FIT002: LUSE= 13 SIGMA OF V-XC FIT FOR ATOM  2  0.4956673E-03
:FIT002: LUSE= 13 SIGMA OF V-XC FIT FOR ATOM  2  0.1152346E-02
:FIT003: LUSE= 13 SIGMA OF V-XC FIT FOR ATOM  3  0.4946681E-03
:FIT003: LUSE= 13 SIGMA OF V-XC FIT FOR ATOM  3  0.1151544E-02
:FIT004: LUSE= 13 SIGMA OF V-XC FIT FOR ATOM  4  0.3379278E-03
:FIT004: LUSE= 13 SIGMA OF V-XC FIT FOR ATOM  4  0.1320406E-02
:FIT005: LUSE= 13 SIGMA OF V-XC FIT FOR ATOM  5  0.3034214E-03
:FIT005: LUSE= 13 SIGMA OF V-XC FIT FOR ATOM  5  0.1027569E-02
:DEN  : DENSITY INTEGRAL  =        -14927.13616016   (Ry)
       ELS_POTENTIAL_AT Z=0 and Z=0.5:  -0.85215  -0.36076
       ELS_POTENTIAL_AT Y=0 and Y=0.5:  -0.56943  -0.25124
:VZERO:v0,v0c,v0x  -1.70898  -0.85215  -0.85684 v5,v5c,v5x  -1.11584  -0.36076  -0.75507
:VZERY:v0,v0c,v0x  -1.37069  -0.56943  -0.80126 v5,v5c,v5x  -1.07423  -0.25124  -0.82299
:VZERX:v0,v0c,v0x  -1.37069  -0.56943  -0.80126 v5,v5c,v5x  -1.07423  -0.25124  -0.82299
 :INFO: VX.gt.+1.0   1.3697386465549497       rho   9.1483602468543854E-003
        Fully Localized Limit method
        Atom  5 L=  3 U=  0.588 J=  0.000 Ry
:EORB:   8.23200000

        Atom           5  spin up   Potential real part (Ry)
:VORBr  5_ 1   M= -3  -0.29400  -0.00000  -0.00000  -0.00000   0.00000   0.00000   0.00000
:VORBr  5_ 1   M= -2  -0.00000  -0.29400  -0.00000  -0.00000  -0.00000  -0.00000   0.00000
:VORBr  5_ 1   M= -1  -0.00000  -0.00000  -0.29400  -0.00000  -0.00000   0.00000   0.00000
:VORBr  5_ 1   M=  0  -0.00000  -0.00000  -0.00000  -0.29400  -0.00000  -0.00000   0.00000
:VORBr  5_ 1   M=  1   0.00000  -0.00000  -0.00000  -0.00000  -0.29400  -0.00000  -0.00000
:VORBr  5_ 1   M=  2   0.00000  -0.00000   0.00000  -0.00000  -0.00000  -0.29400  -0.00000
:VORBr  5_ 1   M=  3   0.00000   0.00000   0.00000   0.00000  -0.00000  -0.00000  -0.29400

                       Potential imaginary part (Ry)
:VORBi  5_ 1   M= -3   0.00000   0.00000   0.00000   0.00000   0.00000   0.00000   0.00000
:VORBi  5_ 1   M= -2   0.00000   0.00000   0.00000   0.00000   0.00000   0.00000   0.00000
:VORBi  5_ 1   M= -1   0.00000   0.00000   0.00000   0.00000   0.00000   0.00000   0.00000
:VORBi  5_ 1   M=  0   0.00000   0.00000   0.00000   0.00000   0.00000   0.00000   0.00000
:VORBi  5_ 1   M=  1   0.00000   0.00000   0.00000   0.00000   0.00000   0.00000   0.00000
:VORBi  5_ 1   M=  2   0.00000   0.00000   0.00000   0.00000   0.00000   0.00000   0.00000
:VORBi  5_ 1   M=  3   0.00000   0.00000   0.00000   0.00000   0.00000   0.00000   0.00000
        Fully Localized Limit method
        Atom  5 L=  3 U=  0.588 J=  0.000 Ry
:EORB:  -5.88000000

        Atom           5  spin down Potential real part (Ry)
:VORBr  5_-1   M= -3   0.29400   0.00000  -0.00000  -0.00000  -0.00000   0.00000   0.00000
:VORBr  5_-1   M= -2   0.00000   0.29400  -0.00000  -0.00000   0.00000   0.00000  -0.00000
:VORBr  5_-1   M= -1  -0.00000  -0.00000   0.29400  -0.00000   0.00000   0.00000  -0.00000
:VORBr  5_-1   M=  0  -0.00000  -0.00000  -0.00000   0.29400  -0.00000   0.00000   0.00000
:VORBr  5_-1   M=  1  -0.00000   0.00000   0.00000  -0.00000   0.29400   0.00000   0.00000
:VORBr  5_-1   M=  2   0.00000   0.00000   0.00000   0.00000   0.00000   0.29400  -0.00000
:VORBr  5_-1   M=  3   0.00000  -0.00000  -0.00000   0.00000   0.00000  -0.00000  -0.29400

                       Potential imaginary part (Ry)
:VORBi  5_-1   M= -3   0.00000   0.00000   0.00000   0.00000   0.00000   0.00000   0.00000
:VORBi  5_-1   M= -2   0.00000   0.00000   0.00000   0.00000   0.00000   0.00000   0.00000
:VORBi  5_-1   M= -1   0.00000   0.00000   0.00000   0.00000   0.00000   0.00000   0.00000
:VORBi  5_-1   M=  0   0.00000   0.00000   0.00000   0.00000   0.00000   0.00000   0.00000
:VORBi  5_-1   M=  1   0.00000   0.00000   0.00000   0.00000   0.00000   0.00000   0.00000
:VORBi  5_-1   M=  2   0.00000   0.00000   0.00000   0.00000   0.00000   0.00000   0.00000
:VORBi  5_-1   M=  3   0.00000   0.00000   0.00000   0.00000   0.00000   0.00000   0.00000
        Fully Localized Limit method
        Atom  5 L=  3 U=  0.588 J=  0.000 Ry
:EORB:   0.00000000

        Atom           5  spin dnup Potential real part (Ry)
:VORBr  5_ 2   M= -3   0.00000   0.00000   0.00000  -0.00000  -0.00000   0.00000   0.00000
:VORBr  5_ 2   M= -2  -0.00000   0.00000   0.00000   0.00000   0.00000  -0.00000   0.00000
:VORBr  5_ 2   M= -1  -0.00000   0.00000   0.00000   0.00000   0.00000  -0.00000   0.00000
:VORBr  5_ 2   M=  0  -0.00000   0.00000   0.00000   0.00000  -0.00000   0.00000   0.00000
:VORBr  5_ 2   M=  1  -0.00000  -0.00000  -0.00000   0.00000   0.00000   0.00000   0.00000
:VORBr  5_ 2   M=  2  -0.00000  -0.00000  -0.00000  -0.00000   0.00000   0.00000  -0.00000
:VORBr  5_ 2   M=  3  -0.00000  -0.00000  -0.00000  -0.00000   0.00000   0.00000  -0.00000

                       Potential imaginary part (Ry)
:VORBi  5_ 2   M= -3   0.00000   0.00000   0.00000   0.00000   0.00000   0.00000   0.00000
:VORBi  5_ 2   M= -2   0.00000   0.00000   0.00000   0.00000   0.00000   0.00000   0.00000
:VORBi  5_ 2   M= -1   0.00000   0.00000   0.00000   0.00000   0.00000   0.00000   0.00000
:VORBi  5_ 2   M=  0   0.00000   0.00000   0.00000   0.00000   0.00000   0.00000   0.00000
:VORBi  5_ 2   M=  1   0.00000   0.00000   0.00000   0.00000   0.00000   0.00000   0.00000
:VORBi  5_ 2   M=  2   0.00000   0.00000   0.00000   0.00000   0.00000   0.00000   0.00000
:VORBi  5_ 2   M=  3   0.00000   0.00000   0.00000   0.00000   0.00000   0.00000   0.00000
:LMAX-WF:   10   Non-Spherical LMAX:   6

          ATOMIC SPHERE DEPENDENT PARAMETERS FOR ATOM  Co1       
:e__0001: OVERALL ENERGY PARAMETER IS    0.4128
          OVERALL BASIS SET ON ATOM IS LAPW
:E1_0001: E( 1)=    0.4128
             APW+lo
:E1_0001: E( 1)=   -3.7473   E(BOTTOM)=   -3.782   E(TOP)=   -3.712  1  2   180
             LOCAL ORBITAL
:E2_0001: E( 2)=    0.4244   E(BOTTOM)=    0.188   E(TOP)=    0.661  0  1   121
             APW+lo
:E0_0001: E( 0)=    0.4128
             APW+lo

          ATOMIC SPHERE DEPENDENT PARAMETERS FOR ATOM  Co1       
:e__0002: OVERALL ENERGY PARAMETER IS    0.4128
          OVERALL BASIS SET ON ATOM IS LAPW
:E1_0002: E( 1)=    0.4128
             APW+lo
:E1_0002: E( 1)=   -3.7473   E(BOTTOM)=   -3.782   E(TOP)=   -3.712  1  2   180
             LOCAL ORBITAL
:E2_0002: E( 2)=    0.4244   E(BOTTOM)=    0.188   E(TOP)=    0.661  0  1   124
             APW+lo
:E0_0002: E( 0)=    0.4128
             APW+lo

          ATOMIC SPHERE DEPENDENT PARAMETERS FOR ATOM  Co1       
:e__0003: OVERALL ENERGY PARAMETER IS    0.4128
          OVERALL BASIS SET ON ATOM IS LAPW
:E1_0003: E( 1)=    0.4128
             APW+lo
:E1_0003: E( 1)=   -3.7473   E(BOTTOM)=   -3.782   E(TOP)=   -3.712  1  2   179
             LOCAL ORBITAL
:E2_0003: E( 2)=    0.4244   E(BOTTOM)=    0.188   E(TOP)=    0.661  0  1   125
             APW+lo
:E0_0003: E( 0)=    0.4128
             APW+lo

          ATOMIC SPHERE DEPENDENT PARAMETERS FOR ATOM  Co2       
:e__0004: OVERALL ENERGY PARAMETER IS    0.4128
          OVERALL BASIS SET ON ATOM IS LAPW
:E1_0004: E( 1)=    0.4128
             APW+lo
:E1_0004: E( 1)=   -3.7435   E(BOTTOM)=   -3.779   E(TOP)=   -3.708  1  2   181
             LOCAL ORBITAL
:E2_0004: E( 2)=    0.4261   E(BOTTOM)=    0.188   E(TOP)=    0.664  0  1   124
             APW+lo
:E0_0004: E( 0)=    0.4128
             APW+lo

          ATOMIC SPHERE DEPENDENT PARAMETERS FOR ATOM  Tb1       
:e__0005: OVERALL ENERGY PARAMETER IS    0.4128
          OVERALL BASIS SET ON ATOM IS LAPW
:E0_0005: E( 0)=    0.4128
             APW+lo
:E0_0005: E( 0)=   -2.7847   E(BOTTOM)=   -2.975   E(TOP)=   -2.595  4  5   171
             LOCAL ORBITAL
:E1_0005: E( 1)=    0.8128
             APW+lo
:E1_0005: E( 1)=   -1.0576   E(BOTTOM)=   -1.480   E(TOP)=   -0.635  3  4   159
             LOCAL ORBITAL
:E3_0005: E( 3)=    0.3014   E(BOTTOM)=    0.242   E(TOP)=    0.361  0  0   108
             APW+lo
:E2_0005: E( 2)=    0.4128   E(BOTTOM)=    0.315   E(TOP)= -520.000  2 -1    86
             APW+lo

       K=  0.031250  0.031250  0.029412            1
:RKM  : MATRIX SIZE   653LOs:  80  RKM= 9.00  WEIGHT= 2.00  PGR:    
       EIGENVALUES ARE:
:EIG00001:      -3.7550839   -3.7530834   -3.7446872   -3.7446189   -3.7439394
:EIG00006:      -3.7377532   -3.7376592   -3.7353873   -3.7353568   -3.7329888
:EIG00011:      -3.7329059   -3.7325916   -3.7311197   -3.7301593   -3.7301511
:EIG00016:      -2.7500252   -1.0297101   -1.0230727   -1.0230341    0.0385574
:EIG00021:       0.2519304    0.2944643    0.3057158    0.3057263    0.3063255
:EIG00026:       0.3064689    0.3223555    0.3312413    0.3318968    0.3326706
:EIG00031:       0.3371044    0.3383750    0.3437489    0.3447248    0.3610758
:EIG00036:       0.3613931    0.3901721    0.4199285    0.4206003    0.4461280
:EIG00041:       0.4472373    0.4687824    0.4708851    0.4709459    0.4903182
:EIG00046:       0.4959547    0.4961269    0.5164016    0.5165272    0.5721084

:EIG00051:       0.5749041    0.5766772    0.6577027    0.6968550    0.7169132
:EIG00056:       0.7342306    0.7539993    0.8065344    0.8116840    0.9312765
:EIG00061:       0.9350779    1.1953608    1.2436692    1.2451009    1.3768763
:EIG00066:       1.4006599    1.4095540    1.4599242    1.4684562    1.4909873
:EIG00071:       1.5356465    1.6520449    1.6672711    1.7263545    1.7553525
:EIG00076:       1.9257264    1.9371159    2.0883375    2.0943891    2.2113591
:EIG00081:       2.3326818    2.3480047    2.3510939    2.3899698    2.4070795
:EIG00086:       2.4249962    2.4597062    2.4820131    2.5294178    2.5296429
:EIG00091:       2.6865673    2.7842376    2.7918972    2.8747604    2.9457958
:EIG00096:       2.9676147    2.9850651    2.9893369    2.9979027    3.0372588

:EIG00101:       3.0518925    3.0786943    3.1311318    3.1468161    3.2435972
:EIG00106:       3.2567295    3.2913837    3.3115995    3.3782263    3.3804848
:EIG00111:       3.4654457    3.5120230    3.5140867    3.5770520    3.5956266
:EIG00116:       3.6259993    3.6653193    3.7377782    3.7556948    3.7923871
:EIG00121:       3.7965284    3.8874184    4.0313438    4.0558172    4.0896221
:EIG00126:       4.0963856    4.1311830    4.1927403    4.2338976    4.2607719
:EIG00131:       4.3506567    4.3586563    4.4124416    4.4434999    4.4449850
:EIG00136:       4.4725765    4.4749490    4.5040199    4.6200241    4.6211548
:EIG00141:       4.6269171    4.6399788    4.6864730    4.7129193    4.7314053
:EIG00146:       4.7462371    4.8032017    4.8174767    4.8330887    4.8336893

:EIG00151:       4.8551186    4.9018979    4.9111004    4.9707878    4.9796534
:EIG00156:       5.0536047    5.0574875    5.0697565    5.1391683    5.1789295
:EIG00161:       5.1805209    5.2131565    5.2684859    5.2851662    5.3563251
:EIG00166:       5.3684770    5.4310440    5.4810712    5.4882565    5.4983117
       ********************************************************

:KPT   :      NUMBER OF K-POINTS:    2176
:LMAX-WF:   10   Non-Spherical LMAX:   6

          ATOMIC SPHERE DEPENDENT PARAMETERS FOR ATOM  Co1       
:e__0001: OVERALL ENERGY PARAMETER IS    0.4128
          OVERALL BASIS SET ON ATOM IS LAPW
:E1_0001: E( 1)=    0.4128
             APW+lo
:E1_0001: E( 1)=   -3.6100   E(BOTTOM)=   -3.647   E(TOP)=   -3.573  1  2   195
             LOCAL ORBITAL
:E2_0001: E( 2)=    0.5435   E(BOTTOM)=    0.289   E(TOP)=    0.798  0  1   126
             APW+lo
:E0_0001: E( 0)=    0.4128
             APW+lo

          ATOMIC SPHERE DEPENDENT PARAMETERS FOR ATOM  Co1       
:e__0002: OVERALL ENERGY PARAMETER IS    0.4128
          OVERALL BASIS SET ON ATOM IS LAPW
:E1_0002: E( 1)=    0.4128
             APW+lo
:E1_0002: E( 1)=   -3.6100   E(BOTTOM)=   -3.647   E(TOP)=   -3.573  1  2   194
             LOCAL ORBITAL
:E2_0002: E( 2)=    0.5435   E(BOTTOM)=    0.289   E(TOP)=    0.798  0  1   129
             APW+lo
:E0_0002: E( 0)=    0.4128
             APW+lo

          ATOMIC SPHERE DEPENDENT PARAMETERS FOR ATOM  Co1       
:e__0003: OVERALL ENERGY PARAMETER IS    0.4128
          OVERALL BASIS SET ON ATOM IS LAPW
:E1_0003: E( 1)=    0.4128
             APW+lo
:E1_0003: E( 1)=   -3.6100   E(BOTTOM)=   -3.647   E(TOP)=   -3.573  1  2   197
             LOCAL ORBITAL
:E2_0003: E( 2)=    0.5436   E(BOTTOM)=    0.289   E(TOP)=    0.798  0  1   122
             APW+lo
:E0_0003: E( 0)=    0.4128
             APW+lo

          ATOMIC SPHERE DEPENDENT PARAMETERS FOR ATOM  Co2       
:e__0004: OVERALL ENERGY PARAMETER IS    0.4128
          OVERALL BASIS SET ON ATOM IS LAPW
:E1_0004: E( 1)=    0.4128
             APW+lo
:E1_0004: E( 1)=   -3.6096   E(BOTTOM)=   -3.647   E(TOP)=   -3.573  1  2   196
             LOCAL ORBITAL
:E2_0004: E( 2)=    0.5424   E(BOTTOM)=    0.287   E(TOP)=    0.798  0  1   124
             APW+lo
:E0_0004: E( 0)=    0.4128
             APW+lo

          ATOMIC SPHERE DEPENDENT PARAMETERS FOR ATOM  Tb1       
:e__0005: OVERALL ENERGY PARAMETER IS    0.4128
          OVERALL BASIS SET ON ATOM IS LAPW
:E0_0005: E( 0)=    0.4128
             APW+lo
:E0_0005: E( 0)=   -2.6063   E(BOTTOM)=   -2.816   E(TOP)=   -2.397  4  5   189
             LOCAL ORBITAL
:E1_0005: E( 1)=    0.8128
             APW+lo
:E1_0005: E( 1)=   -0.9263   E(BOTTOM)=   -1.379   E(TOP)=   -0.474  3  4   171
             LOCAL ORBITAL
:E3_0005: E( 3)=    0.6253   E(BOTTOM)=    0.545   E(TOP)=    0.705  0  1   117
             APW+lo
:E2_0005: E( 2)=    0.4128   E(BOTTOM)=    0.367   E(TOP)= -520.000  2 -1    83
             APW+lo

       K=  0.031250  0.031250  0.029412            1
:RKM  : MATRIX SIZE   653LOs:  80  RKM= 9.00  WEIGHT= 2.00  PGR:    
       EIGENVALUES ARE:
:EIG00001:      -3.6169992   -3.6158007   -3.6066162   -3.6065543   -3.6059634
:EIG00006:      -3.6022861   -3.6021196   -3.6005050   -3.6004464   -3.5984582
:EIG00011:      -3.5984320   -3.5946355   -3.5945368   -3.5945190   -3.5937635
:EIG00016:      -2.5695816   -0.9029597   -0.9018187   -0.9017605    0.0428608
:EIG00021:       0.3322746    0.3805309    0.3859839    0.3988617    0.4256166
:EIG00026:       0.4256992    0.4283139    0.4544262    0.4549285    0.4560799
:EIG00031:       0.5123792    0.5130801    0.5403300    0.5417397    0.5867320
:EIG00036:       0.5932836    0.5936900    0.6137721    0.6141833    0.6162587
:EIG00041:       0.6164007    0.6175850    0.6257235    0.6287057    0.6299160
:EIG00046:       0.6306074    0.6497684    0.6499919    0.6669954    0.6950765

:EIG00051:       0.7009134    0.7035261    0.7452971    0.7467839    0.7791698
:EIG00056:       0.8026443    0.8078482    0.8364110    0.8485614    0.9861178
:EIG00061:       0.9896322    1.2476652    1.2973540    1.2994561    1.4071372
:EIG00066:       1.4279087    1.4446408    1.4799482    1.4938495    1.5203869
:EIG00071:       1.5684380    1.6712990    1.6905296    1.7383617    1.7582451
:EIG00076:       1.9398034    1.9508774    2.1249431    2.1300901    2.2258805
:EIG00081:       2.3193873    2.3351933    2.3459293    2.3955497    2.4079297
:EIG00086:       2.4311794    2.4671428    2.4918165    2.5373754    2.5391472
:EIG00091:       2.6732246    2.7804883    2.7905591    2.8548302    2.9539458
:EIG00096:       2.9773631    2.9838564    3.0209740    3.0231569    3.0255220

:EIG00101:       3.0673651    3.0771227    3.1206072    3.1357368    3.2391939
:EIG00106:       3.2502731    3.2843929    3.3107223    3.3884513    3.3911801
:EIG00111:       3.4690834    3.5155968    3.5238356    3.5770480    3.5942414
:EIG00116:       3.6278981    3.6664850    3.7355221    3.7584087    3.7992521
:EIG00121:       3.7996529    3.8952362    4.0347642    4.0696730    4.0978104
:EIG00126:       4.1021345    4.1249073    4.1936790    4.2433401    4.2834186
:EIG00131:       4.3488236    4.3580388    4.4106703    4.4392609    4.4469741
:EIG00136:       4.4847744    4.4890194    4.5070543    4.6083827    4.6216752
:EIG00141:       4.6297389    4.6357872    4.6834571    4.7141178    4.7203294
:EIG00146:       4.7316867    4.7946289    4.8120713    4.8210786    4.8252241

:EIG00151:       4.8436833    4.8937219    4.9075068    4.9726745    4.9812556
:EIG00156:       5.0533405    5.0568282    5.0662830    5.1474139    5.1810999
:EIG00161:       5.1819481    5.2154375    5.2717994    5.2894690    5.3698334
:EIG00166:       5.3830718    5.4255145    5.4847950    5.4941791    5.5023822
       ********************************************************

:KPT   :      NUMBER OF K-POINTS:    2176
  Potential not averaged when calculating dV/dr
   0.0   0.0 angle (M,z), angle (M,x) deg
 LDA+U potential       added for atom type  5 L=  3 spin block down
 LDA+U potential       added for atom type  5 L=  3 spin block up  
 LDA+U potential       added for atom type  5 L=  3 spin block dnup

        SPIN-ORBIT EIGENVALUES:
     K=  0.031250  0.031250  0.029412            1
      MATRIX SIZE=  340   WEIGHT= 2.00
     EIGENVALUES ARE:
          -3.8089817   -3.8079769   -3.8017391   -3.7984658   -3.7960357
          -3.7818273   -3.7748166   -3.7706951   -3.7705445   -3.7637606
          -3.6991697   -3.6983648   -3.6908869   -3.6884738   -3.6860641
          -3.6183802   -3.6169253   -3.6153728   -3.6145508   -3.6076580
          -3.5956967   -3.5856479   -3.5828525   -3.5826021   -3.5741270
          -3.5607097   -3.5592994   -3.5565310   -3.5551107   -3.5505758
          -2.7500252   -2.5695816   -1.2031446   -1.1643790   -0.9229772
          -0.8736205   -0.8366372   -0.8089390   -0.0018702    0.0026827

           0.0064939    0.0121760    0.0244767    0.0331556    0.0385731
           0.0428711    0.0689463    0.2518862    0.3311466    0.3315428
           0.3324200    0.3331000    0.3339499    0.3361005    0.3434159
           0.3439666    0.3592370    0.3622044    0.3808002    0.3861143
           0.3898094    0.3987449    0.4150365    0.4199869    0.4251741
           0.4255377    0.4286981    0.4448155    0.4473912    0.4535856
           0.4551195    0.4573610    0.4678705    0.4691111    0.4731547
           0.4906903    0.4929743    0.4988055    0.5142019    0.5143765

           0.5186889    0.5191307    0.5398673    0.5435907    0.5718416
           0.5751418    0.5767573    0.5871681    0.5913618    0.5965457
           0.6107609    0.6199016    0.6268349    0.6301159    0.6310989
           0.6553798    0.6852510    0.6965786    0.7002383    0.7037336
           0.7147483    0.7271162    0.7311976    0.7323037    0.7532693
           0.7774425    0.7922871    0.7978240    0.8032049    0.8127933
           0.8146466    0.8353348    0.9163657    0.9203002    0.9277796
           0.9361650    0.9383688    0.9457867    0.9486445    0.9708854

           0.9835486    0.9931132    1.1953759    1.2361298    1.2477135
           1.2522168    1.2914022    1.3064087    1.3711979    1.3939303
           1.4051478    1.4161178    1.4383580    1.4510870    1.4519902
           1.4595521    1.4869820    1.4894507    1.4969630    1.5282417
           1.5336701    1.5691018    1.6488541    1.6665738    1.6720154
           1.6910359    1.7278399    1.7385559    1.7399220    1.7597734

       ********************************************************
:GAP (global)   :    0.0    Ry =     0.0   eV (metal)
:GAP (this spin):    0.0    Ry =     0.0   eV (metal)
         Bandranges (emin - emax) and occupancy:
:BAN00086:  86    0.515999    0.575846  1.00000000
:BAN00087:  87    0.521515    0.577902  1.00000000
:BAN00088:  88    0.530492    0.590223  1.00000000
:BAN00089:  89    0.537315    0.603814  1.00000000
:BAN00090:  90    0.541697    0.610229  1.00000000
:BAN00091:  91    0.548839    0.613857  1.00000000
:BAN00092:  92    0.559345    0.620168  0.98576595
:BAN00093:  93    0.579168    0.628060  0.96403466
:BAN00094:  94    0.591544    0.630443  0.82051016
:BAN00095:  95    0.611798    0.633508  0.22968776
:BAN00096:  96    0.616110    0.669938  0.00000160
:BAN00097:  97    0.620830    0.693895  0.00000000
:BAN00098:  98    0.622740    0.697238  0.00000000
:BAN00099:  99    0.628926    0.702336  0.00000000
:BAN00100: 100    0.636661    0.704089  0.00000000
:BAN00101: 101    0.650104    0.716368  0.00000000
        Energy to separate low and high energystates:   -0.05278


:NOE  : NUMBER OF ELECTRONS          =   94.000

:FER  : F E R M I - ENERGY(TETRAH.M.)=   0.6164179955
:GMA  : POTENTIAL AND CHARGE CUT-OFF  16.00 Ry**.5
 
:POS001: ATOM   -1 X,Y,Z = 0.50000 0.00000 0.50000  MULT= 1  ZZ= 27.000  Co1
 
       LMMAX 16
       LM=   0 0  2 0  2 2 -2 2  4 0  4 2 -4 2  4 4 -4 4  6 0  6 2 -6 2  6 4 -6 4  6 6 -6 6
 
:CHA001: TOTAL VALENCE CHARGE INSIDE SPHERE   1 =   7.8130    (RMT=  2.3000 )
:PCS001: PARTIAL CHARGES SPHERE =  1 S,P,D,F,PX,PY,PZ,D-Z2,D-X2Y2,D-XY,D-XZ,D-YZ
:QTL001: 0.2278 3.1803 4.3886 0.0126 1.0502 1.0688 1.0607 0.8655 0.8781 0.8829 0.8888 0.8725
        Q-s-low E-s-low   Q-p-low E-p-low   Q-d-low E-d-low   Q-f-low E-f-low
:EPL001:  0.0000 10.0000    2.9952 -3.7398    0.0000 10.0000    0.0000 10.0000
        Q-s-hi  E-s-hi    Q-p-hi  E-p-hi    Q-d-hi  E-d-hi    Q-f-hi  E-f-hi
:EPH001:  0.2272  0.2779    0.1851  0.4061    4.3878  0.4396    0.0124  0.4336
 
                      QXX         QXY         QYY         QZZ       UP TO R
:VZZ001:             0.95314    -2.12235    -1.51840     0.56523       2.300
 
:POS002: ATOM   -2 X,Y,Z = 0.00000 0.50000 0.50000  MULT= 1  ZZ= 27.000  Co1
 
       LMMAX 16
       LM=   0 0  2 0  2 2 -2 2  4 0  4 2 -4 2  4 4 -4 4  6 0  6 2 -6 2  6 4 -6 4  6 6 -6 6
 
:CHA002: TOTAL VALENCE CHARGE INSIDE SPHERE   2 =   7.8129    (RMT=  2.3000 )
:PCS002: PARTIAL CHARGES SPHERE =  2 S,P,D,F,PX,PY,PZ,D-Z2,D-X2Y2,D-XY,D-XZ,D-YZ
:QTL002: 0.2277 3.1802 4.3888 0.0122 1.0786 1.0407 1.0611 0.8652 0.8856 0.8754 0.8643 0.8975
        Q-s-low E-s-low   Q-p-low E-p-low   Q-d-low E-d-low   Q-f-low E-f-low
:EPL002:  0.0000 10.0000    2.9952 -3.7398    0.0000 10.0000    0.0000 10.0000
        Q-s-hi  E-s-hi    Q-p-hi  E-p-hi    Q-d-hi  E-d-hi    Q-f-hi  E-f-hi
:EPH002:  0.2274  0.2779    0.1851  0.4061    4.3881  0.4396    0.0120  0.4337
 
                      QXX         QXY         QYY         QZZ       UP TO R
:VZZ002:            -2.73851     0.00902     2.17331     0.56521       2.300
 
:POS003: ATOM   -3 X,Y,Z = 0.50000 0.50000 0.50000  MULT= 1  ZZ= 27.000  Co1
 
       LMMAX 16
       LM=   0 0  2 0  2 2 -2 2  4 0  4 2 -4 2  4 4 -4 4  6 0  6 2 -6 2  6 4 -6 4  6 6 -6 6
 
:CHA003: TOTAL VALENCE CHARGE INSIDE SPHERE   3 =   7.8128    (RMT=  2.3000 )
:PCS003: PARTIAL CHARGES SPHERE =  3 S,P,D,F,PX,PY,PZ,D-Z2,D-X2Y2,D-XY,D-XZ,D-YZ
:QTL003: 0.2279 3.1801 4.3880 0.0126 1.0503 1.0693 1.0610 0.8658 0.8783 0.8832 0.8888 0.8726
        Q-s-low E-s-low   Q-p-low E-p-low   Q-d-low E-d-low   Q-f-low E-f-low
:EPL003:  0.0000 10.0000    2.9952 -3.7398    0.0000 10.0000    0.0000 10.0000
        Q-s-hi  E-s-hi    Q-p-hi  E-p-hi    Q-d-hi  E-d-hi    Q-f-hi  E-f-hi
:EPH003:  0.2276  0.2779    0.1849  0.4062    4.3876  0.4396    0.0124  0.4336
 
                      QXX         QXY         QYY         QZZ       UP TO R
:VZZ003:             0.95762     2.13731    -1.51032     0.55263       2.300
 
:POS004: ATOM   -4 X,Y,Z = 0.33333 0.66667 0.00000  MULT= 2  ZZ= 27.000  Co2
 
       LMMAX 28
       LM=   0 0  1 1 -1 1  2 0  2 2 -2 2  3 1 -3 1  3 3 -3 3  4 0  4 2 -4 2  4 4 -4 4  5 1 -5 1
         5 3 -5 3  5 5 -5 5  6 0  6 2 -6 2  6 4 -6 4  6 6 -6 6
 
:CHA004: TOTAL VALENCE CHARGE INSIDE SPHERE   4 =   7.7999    (RMT=  2.3000 )
:PCS004: PARTIAL CHARGES SPHERE =  4 S,P,D,F,PX,PY,PZ,D-Z2,D-X2Y2,D-XY,D-XZ,D-YZ
[...]
         0.00039  0.00000  0.00006  0.00000  0.00001  0.00000  0.99117
 Density matrix UPUP block, imag part 
         0.00000  0.00000 -0.00000  0.00000 -0.00001  0.00000  0.00000
         0.00000  0.00000  0.00000  0.00000  0.00000 -0.00001  0.00000
         0.00000  0.00000  0.00000  0.00000  0.00000  0.00000  0.00001
         0.00000  0.00000  0.00000  0.00000  0.00000  0.00000  0.00000
         0.00001  0.00000 -0.00000  0.00000  0.00000  0.00000 -0.00001
         0.00000  0.00001  0.00000  0.00000  0.00000  0.00000  0.00000
         0.00000  0.00000 -0.00001  0.00000  0.00001  0.00000  0.00000
 
:TRA005:  TRACE of UPUP MATRIX=   6.94803   0.00000
:POM005UP:Partial ORBITAL MOMENT in global orthog. system=  0.00000  0.00000 -0.00129
 
 
 Density matrix UPDN block, real part.  L= 3                                   
         0.00000 -0.02464  0.00000  0.00000  0.00000  0.00000  0.00000
         0.00000  0.00000 -0.02990  0.00000  0.00000  0.00000  0.00000
         0.00000  0.00000  0.00000 -0.03200  0.00000  0.00000  0.00000
         0.00000  0.00000  0.00000  0.00000 -0.03180  0.00000  0.00000
         0.00000  0.00000  0.00000  0.00000  0.00000 -0.02870  0.00000
        -0.00006  0.00000  0.00000  0.00000  0.00000  0.00000 -0.00064
         0.00000  0.00000  0.00000  0.00000  0.00000  0.00000  0.00000
 Density matrix UPDN block, imag part 
         0.00000  0.00000  0.00000  0.00000  0.00000  0.00000  0.00000
         0.00000  0.00000  0.00000  0.00000  0.00000  0.00000  0.00000
         0.00000  0.00000  0.00000  0.00000  0.00000  0.00000  0.00000
         0.00000  0.00000  0.00000  0.00000  0.00000  0.00000  0.00000
         0.00000  0.00000  0.00000  0.00000  0.00000  0.00000  0.00000
         0.00000  0.00000  0.00000  0.00000  0.00000  0.00000  0.00000
         0.00000  0.00000  0.00000  0.00000  0.00000  0.00000  0.00000
 
:TRA005:  TRACE of UPDN MATRIX=   0.00000   0.00000
 
 
 Density matrix DNDN block, real part.  L= 3                                   
         0.00460  0.00000 -0.00002  0.00000  0.00002  0.00000 -0.00331
         0.00000  0.00496  0.00000  0.00001  0.00000  0.00000  0.00000
        -0.00002  0.00000  0.00497  0.00000  0.00000  0.00000  0.00001
         0.00000  0.00001  0.00000  0.00665  0.00000  0.00001  0.00000
         0.00002  0.00000  0.00000  0.00000  0.00517  0.00000 -0.00002
         0.00000  0.00000  0.00000  0.00001  0.00000  0.00570  0.00000
        -0.00331  0.00000  0.00001  0.00000 -0.00002  0.00000  0.98093
 Density matrix DNDN block, imag part 
         0.00000  0.00000 -0.00003  0.00000  0.00001  0.00000  0.00000
         0.00000  0.00000  0.00000  0.00001  0.00000 -0.00000  0.00000
         0.00003  0.00000  0.00000  0.00000 -0.00001  0.00000  0.00002
         0.00000 -0.00001  0.00000  0.00000  0.00000  0.00000  0.00000
        -0.00001  0.00000  0.00001  0.00000  0.00000  0.00000  0.00000
         0.00000  0.00000  0.00000 -0.00000  0.00000  0.00000  0.00000
         0.00000  0.00000 -0.00002  0.00000 -0.00000  0.00000  0.00000
 
:TRA005:  TRACE of DNDN MATRIX=   1.01296   0.00000
:POM005DN:Partial ORBITAL MOMENT in global orthog. system=  0.00000  0.00000  2.93074
 
 
 
:ORB005:  ORBITAL MOMENT:  0.00000  0.00000  2.92946 PROJECTION ON M  2.92946
:SPI005:  SPIN MOMENT:   0.00000   0.00000   5.93507 PROJECTION ON M  5.93507

        1.ATOM      Co1                   5 CORE STATES
:1S 001: 1S                -556.812478645 Ry
:2S 001: 2S                 -64.937682964 Ry
:2PP001: 2P*                -56.175096395 Ry
:2P 001: 2P                 -55.086279635 Ry
:3S 001: 3S                  -6.435345850 Ry

        2.ATOM      Co1                   5 CORE STATES
:1S 002: 1S                -556.812420447 Ry
:2S 002: 2S                 -64.937626777 Ry
:2PP002: 2P*                -56.175039718 Ry
:2P 002: 2P                 -55.086223008 Ry
:3S 002: 3S                  -6.435305769 Ry

        3.ATOM      Co1                   5 CORE STATES
:1S 003: 1S                -556.812438412 Ry
:2S 003: 2S                 -64.937626691 Ry
:2PP003: 2P*                -56.175042847 Ry
:2P 003: 2P                 -55.086225838 Ry
:3S 003: 3S                  -6.435291223 Ry

        4.ATOM      Co2                   5 CORE STATES
       CORE-FORCE in mRy/a.u. = |F|      Fx             Fy             Fz
:FCO004:   4.ATOM      0.134013099349      0.083365862551     -0.104926849558      0.000000000000

:1S 004: 1S                -556.812311007 Ry
:2S 004: 2S                 -64.934735836 Ry
:2PP004: 2P*                -56.172553220 Ry
:2P 004: 2P                 -55.083700061 Ry
:3S 004: 3S                  -6.433557868 Ry

        5.ATOM      Tb1                  14 CORE STATES
:1S 005: 1S               -3807.025644449 Ry
:2S 005: 2S                -630.238317932 Ry
:2PP005: 2P*               -598.823817361 Ry
:2P 005: 2P                -543.951185913 Ry
:3S 005: 3S                -139.435997569 Ry
:3PP005: 3P*               -125.781311518 Ry
:3P 005: 3P                -114.466156142 Ry
:3DD005: 3D*                -90.955053683 Ry
:3D 005: 3D                 -88.487576906 Ry
:4S 005: 4S                 -27.316001437 Ry
:4PP005: 4P*                -21.967808879 Ry
:4P 005: 4P                 -19.436385967 Ry
:4DD005: 4D*                -10.630736985 Ry
:4D 005: 4D                 -10.171564199 Ry

        1.ATOM      Co1                   5 CORE STATES
:1S 001: 1S                -556.812949344 Ry
:2S 001: 2S                 -64.871155254 Ry
:2PP001: 2P*                -56.126046796 Ry
:2P 001: 2P                 -55.035676465 Ry
:3S 001: 3S                  -6.294991392 Ry

        2.ATOM      Co1                   5 CORE STATES
:1S 002: 1S                -556.812891149 Ry
:2S 002: 2S                 -64.871099589 Ry
:2PP002: 2P*                -56.125990506 Ry
:2P 002: 2P                 -55.035620238 Ry
:3S 002: 3S                  -6.294952628 Ry

        3.ATOM      Co1                   5 CORE STATES
:1S 003: 1S                -556.812910113 Ry
:2S 003: 2S                 -64.871115836 Ry
:2PP003: 2P*                -56.126006099 Ry
:2P 003: 2P                 -55.035635888 Ry
:3S 003: 3S                  -6.294973740 Ry

        4.ATOM      Co2                   5 CORE STATES
       CORE-FORCE in mRy/a.u. = |F|      Fx             Fy             Fz
:FCO004:   4.ATOM      0.141456425097      0.087050707808     -0.111499302560      0.000000000000

:1S 004: 1S                -556.812723134 Ry
:2S 004: 2S                 -64.869671381 Ry
:2PP004: 2P*                -56.124579459 Ry
:2P 004: 2P                 -55.034207775 Ry
:3S 004: 3S                  -6.296190498 Ry

        5.ATOM      Tb1                  14 CORE STATES
:1S 005: 1S               -3807.025751415 Ry
:2S 005: 2S                -630.235071274 Ry
:2PP005: 2P*               -598.822245858 Ry
:2P 005: 2P                -543.948618299 Ry
:3S 005: 3S                -139.263084058 Ry
:3PP005: 3P*               -125.625663512 Ry
:3P 005: 3P                -114.286652732 Ry
:3DD005: 3D*                -90.827014262 Ry
:3D 005: 3D                 -88.353459280 Ry
:4S 005: 4S                 -26.923013044 Ry
:4PP005: 4P*                -21.575357781 Ry
:4P 005: 4P                 -19.048475292 Ry
:4DD005: 4D*                -10.245241874 Ry
:4D 005: 4D                  -9.787863166 Ry
:DMATR  1_1:    1.0000    1.0000    1.0000    1.0000    1.0000    1.0000    1.0000
:DMATR  1_2:    0.0000    0.0000    0.0000    0.0000    0.0000    0.0000    1.0000
:DMATR  1_3:   -0.0000   -0.0000   -0.0000   -0.0000   -0.0000   -0.0000    0.0000
:DMATR  1_1:    0.9918    0.9930    0.9929    0.9931    0.9928    0.9933    0.9912
:DMATR  1_2:    0.0046    0.0050    0.0049    0.0067    0.0052    0.0057    0.9809
:DMATR  1_3:   -0.0000    0.0000   -0.0000    0.0000   -0.0000   -0.0000    0.0000
:CINT001 Core Integral Atom   1 Up    5.99961186 Dn   5.999582 Total  11.99919346
:CINT002 Core Integral Atom   2 Up    5.99961185 Dn   5.999582 Total  11.99919344
:CINT003 Core Integral Atom   3 Up    5.99961185 Dn   5.999582 Total  11.99919344
:CINT004 Core Integral Atom   4 Up    5.99960921 Dn   5.999580 Total  11.99918920
:CINT005 Core Integral Atom   5 Up   22.99997733 Dn  22.999973 Total  45.99995027

       DENSITY AT NUCLEUS
        JATOM        VALENCE       SEMI-CORE          CORE           TOTAL
:RTO001:   1        8.132936        0.000000    17496.969084    17505.102021
:RTO002:   2        8.132774        0.000000    17496.968681    17505.101454
:RTO003:   3        8.131936        0.000000    17496.968782    17505.100719
:RTO004:   4        8.092064        0.000000    17496.914568    17505.006632
:RTO005:   5     1241.791758        0.000000  1219629.616328  1220871.408086

       HYPERFINE FIELDS FOR THOMSON RADIUS
:HFF001:          -11.635           0.000        -200.280        -211.914 (KGAUSS)
:HFF002:          -11.640           0.000        -200.277        -211.917 (KGAUSS)
:HFF003:          -12.331           0.000        -200.232        -212.562 (KGAUSS)
:HFF004:           70.588           0.000        -196.000        -125.412 (KGAUSS)
:HFF005:         2652.994           0.000       -2578.902          74.092 (KGAUSS)
:K-LIST:Reduced k-vector list    19745    2293
     
       CHARGES OF NEW CHARGE DENSITY
:NTO   : INTERSTITIAL      UP =     3.466684 DN =     3.882732 TOT =     7.349416
:NPC   : INTERSTITIAL      UP =    10.556321 DN =    10.009171 TOT =    20.565492
:NTO001: CHARGE SPHERE   1 UP =   13.802128 DN =   12.225866 TOT =   26.027993
:NTO002: CHARGE SPHERE   2 UP =   13.802015 DN =   12.225185 TOT =   26.027200
:NTO003: CHARGE SPHERE   3 UP =   13.801866 DN =   12.225795 TOT =   26.027661
:NTO004: CHARGE SPHERE   4 UP =   13.795839 DN =   12.237361 TOT =   26.033200
:NTO005: CHARGE SPHERE   5 UP =   34.189638 DN =   28.307601 TOT =   62.497239

:NEC01: NUCLEAR AND ELECTRONIC CHARGE    200.00000000   199.99590881 Plane Wave
     
       CHARGES OF OLD CHARGE DENSITY
:OTO   : INTERSTITIAL      UP =     3.468389 DN =     3.884999 TOT =     7.353389
:OPC   : INTERSTITIAL      UP =    10.562924 DN =    10.015691 TOT =    20.578615
:OTO001: CHARGE SPHERE   1 UP =   13.802163 DN =   12.225456 TOT =   26.027619
:OTO002: CHARGE SPHERE   2 UP =   13.802168 DN =   12.225477 TOT =   26.027645
:OTO003: CHARGE SPHERE   3 UP =   13.801921 DN =   12.225741 TOT =   26.027662
:OTO004: CHARGE SPHERE   4 UP =   13.796006 DN =   12.237859 TOT =   26.033865
:OTO005: CHARGE SPHERE   5 UP =   34.189099 DN =   28.306856 TOT =   62.495955

:NEC02: NUCLEAR AND ELECTRONIC CHARGE    200.00000000   200.00000000
     
       CONVERGENCE TEST
:DTO001: DIFFERENCE SPHERE  1 UP =  0.0004448 DN =  0.0009254 TOT =  0.0013702
:DTO002: DIFFERENCE SPHERE  2 UP =  0.0002949 DN =  0.0002365 TOT =  0.0005314
:DTO003: DIFFERENCE SPHERE  3 UP =  0.0004114 DN =  0.0005099 TOT =  0.0009214
:DTO004: DIFFERENCE SPHERE  4 UP =  0.0005648 DN =  0.0003411 TOT =  0.0009059
:DTO005: DIFFERENCE SPHERE  5 UP =  0.0003611 DN =  0.0007440 TOT =  0.0011051

:DIS  :  CHARGE DISTANCE      (  0.0009254 for atom    1 spin 2)      0.0019133
 
******************************************************
* Multisecant Mixing Release 10.8.9                  *
* Standard Mode with step bound                      *
* Multisecant MSR1 Algorithm                         *
* Regularization       2.000E-04                     *
* Minimum Greed        1.000E-03                     *
* Max Number of Memory Steps    8                    *
******************************************************
 
:MVORD  NDM   294 L1   8.796093E-04 %   2.5792E+00
:INFOC: Max vcoul   0.00012 for atom   5 average:   0.00007

:FULLRMS/Atom   0.1055818111
:PLANE:  PW /ATOM     1.08644 DISTAN   2.07E-04 %  1.91E-02
:CHARG:  CLM/ATOM   260.58556 DISTAN   7.98E-04 %  3.06E-04
:INFOF Fractnow,Tolerror,TolReject,qtot     1.000     1.667     3.000     0.002 F F F

Step History
        Dmix         Dmixt        Red     Pred      Step      Lambda    MagAbs    Beta
 15   6.2955E-02   6.2955E-02  9.99E-01  9.99E-01  1.34E-01  1.48E+00  3.47E-02  1.00E+00
 16   1.2591E-01   1.2591E-01  1.00E+00  1.00E+00  2.52E-01  1.44E+00  6.53E-02  1.00E+00
 17   6.8577E-02   6.8577E-02  1.00E+00  1.00E+00  1.27E-01  1.51E+00  3.28E-02  1.00E+00
 18   1.3715E-01   1.3715E-01  1.00E+00  1.00E+00  2.54E-01  1.42E+00  6.56E-02  1.00E+00
 19   6.8577E-02   6.8577E-02  1.00E+00  1.00E+00  1.27E-01  1.51E+00  3.28E-02  1.00E+00
 20   1.3715E-01   1.3715E-01  1.00E+00  1.00E+00  2.54E-01  1.47E+00  6.56E-02  1.00E+00
 21   2.4913E-01   2.4913E-01  1.00E+00  1.00E+00  2.98E-01  1.80E+00  7.72E-02  1.00E+00
 22   2.1283E-01   2.1283E-01  1.00E+00  1.00E+00  2.50E-01  2.44E+00  6.46E-02  1.00E+00
 23   1.1833E-01   1.1833E-01  1.00E+00  1.00E+00  1.46E-01  2.31E+00  3.78E-02  1.00E+00
:NOTE :  Number of Memory Steps    8 Skipping   14
:INFOSL ,t1/t2,syy/sys,sqrt(syy/sss)     0.008     0.003     2.599     4.982     2.047     2.434     4.982     2.297     2.169

Decomposed Diagonal  YY                            SS
MEM:        DENS       ORB              ALL        DENS        ORB
  1      0.416301    0.001620       0.380058    1.000000    0.000000
  2      0.464877    0.001121       0.310043    1.000000    0.000000
  3      0.548287    0.014817       0.246030    1.000000    0.000000
  4      0.674432    0.009167       0.166140    1.000000    0.000000
  5      0.487151    0.018750       0.270748    1.000000    0.000000
  6      0.724164    0.008026       0.131018    1.000000    0.000000
  7      0.915872    0.001015       0.006507    1.000000    0.000000
  8      0.911141    0.001428       0.013997    1.000000    0.000000

:PREDicted Charge, CTotal, PW Trust   3.14E-04   1.04E-03   2.90E-04
:PREDicted DMix, Beta, BLim           1.09E-01   8.46E-01   1.09E-01

Eigenvalues, unscaled except for SY+YY with Slambda=   1.86216 Ylambda=   1.00000
   #     SY Real       SY Imag         SS            YY        SY+YY Real     SY+YY Imag
   1   9.65591E-01   0.00000E+00   1.10083E+00   3.10538E+00   4.28747E+00   0.00000E+00
   2   3.37486E-01   0.00000E+00   3.76292E-01   1.25355E+00   2.03087E+00   0.00000E+00
   3   1.48660E-01   0.00000E+00   2.86220E-02   5.18205E-01   1.23114E+00   0.00000E+00
   4   3.26466E-02   0.00000E+00   1.51673E-02   2.14048E-01   2.61702E-01   0.00000E+00
   5   1.55204E-02   0.00000E+00   3.33039E-03   6.41540E-02   1.23125E-01   0.00000E+00
   6   4.12211E-03   0.00000E+00   2.55097E-04   3.05349E-02   5.07107E-02   0.00000E+00
   7   9.66975E-05   0.00000E+00   3.09859E-05   1.21182E-02   1.45352E-02   0.00000E+00
   8   4.89960E-04   0.00000E+00   1.35478E-05   1.80831E-04   4.47975E-04   0.00000E+00

:SING : Singular value  4.297E+00  Weight  1.000E+00  Projection  2.133E-05
:SING : Singular value  2.068E+00  Weight  1.000E+00  Projection  1.161E-03
:SING : Singular value  1.208E+00  Weight  1.000E+00  Projection -1.215E-03
:SING : Singular value  2.617E-01  Weight  1.000E+00  Projection  1.227E-03
:SING : Singular value  1.232E-01  Weight  1.000E+00  Projection -1.539E-03
:SING : Singular value  5.063E-02  Weight  9.997E-01  Projection  2.639E-03
:SING : Singular value  1.453E-02  Weight  9.965E-01  Projection  5.469E-03
:SING : Singular value  4.480E-04  Weight  2.136E-01  Projection -9.994E-03

:RANK :  ACTIVE   7.21/8  =  90.12 % ; YY RANK   7.04/8  =  87.95 %
:DLIM :  Beta Active  9.597E-01
:TRUST:  Step  1.5E-01 Charge  1.7E-03 (e) CTO  3.5E-03 (e) PW  4.2E-02 (e) DM  1.1E-01
:DIRM :  MEMORY  8/8  RED  1.00 PRED  1.00 NEXT  1.00 BETA  0.96
:DIRD : |MSR1|= 3.451E-02 |PRATT|= 2.586E-01 ANGLE=   0.0 DEGREES
:DIRP : |MSR1|= 9.283E-05 |PRATT|= 7.319E-04 ANGLE=  51.4 DEGREES
:DIRQ : |MSR1|= 2.451E-04 |PRATT|= 2.821E-03 ANGLE=  94.5 DEGREES
:DIRT : |MSR1|= 3.451E-02 |PRATT|= 2.586E-01 ANGLE=   0.8 DEGREES
:MIX  :  MSE1   REGULARIZATION:  8.59E-04 GREED: 0.13348  Newton 1.00  0.1335                
     
       CHARGES OF MIXED CHARGE DENSITY
:CTO   : INTERSTITIAL      UP =     3.468483 DN =     3.884958 TOT =     7.353441
:CPC   : INTERSTITIAL      UP =    10.562907 DN =    10.015601 TOT =    20.578508
:CTO001: CHARGE SPHERE   1 UP =   13.802130 DN =   12.225452 TOT =   26.027582
:CTO002: CHARGE SPHERE   2 UP =   13.802132 DN =   12.225448 TOT =   26.027579
:CTO003: CHARGE SPHERE   3 UP =   13.801893 DN =   12.225742 TOT =   26.027635
:CTO004: CHARGE SPHERE   4 UP =   13.795993 DN =   12.237864 TOT =   26.033857
:CTO005: CHARGE SPHERE   5 UP =   34.189167 DN =   28.306881 TOT =   62.496048

       SPIN MAGNETIC MOMENTS OF MIXED CHARGE DENSITY
:MMINT:  MAGNETIC MOMENT IN INTERSTITIAL  =   -0.41647
:MMI001: MAGNETIC MOMENT IN SPHERE   1    =    1.57668
:MMI002: MAGNETIC MOMENT IN SPHERE   2    =    1.57668
:MMI003: MAGNETIC MOMENT IN SPHERE   3    =    1.57615
:MMI004: MAGNETIC MOMENT IN SPHERE   4    =    1.55813
:MMI005: MAGNETIC MOMENT IN SPHERE   5    =    5.88229
:MMTOT:  SPIN MAGNETIC MOMENT IN CELL     =   13.31158

:NEC03: NUCLEAR AND ELECTRONIC CHARGE    200.00000000   200.00000000

:VSNew: Total Rescaling   1.00000000

PW CHANGE     H    K    L      Current       Change    Residue
:PUP001:      0    0    0  2.45975803E-02  1.337E-07 -8.812E-07
:PUP002:     -1    0    0  2.76843217E-03  5.165E-07  4.278E-06
:PUP003:     -1    1    0  2.76694102E-03  5.197E-07  4.348E-06
:PUP004:      0   -1    0  2.76843119E-03  5.171E-07  4.291E-06
:PUP005:      0    0   -1  6.33926769E-03 -1.936E-07 -5.804E-07
:PUP006:     -1    0   -1  6.84585840E-03 -1.160E-07 -1.901E-07
:PUP007:     -1    0    1  6.84572417E-03 -1.165E-07 -1.979E-07
:PUP008:     -1    1   -1  6.84680725E-03 -1.084E-07 -1.198E-07
:PUP009:     -1    1    1  6.84685923E-03 -1.094E-07 -1.258E-07
:PUP010:      0   -1   -1  6.84572454E-03 -1.167E-07 -2.050E-07
:PUP011:      0   -1    1  6.84585830E-03 -1.162E-07 -1.977E-07
:PUP012:     -2    1    0  6.27344439E-03  6.292E-08 -8.518E-07
  
:PDN001:      0    0    0  2.43682293E-02 -2.295E-07 -1.847E-06
:PDN002:     -1    0    0  3.49767513E-03  4.058E-07  4.073E-06
:PDN003:     -1    1    0  3.49812971E-03  4.371E-07  4.413E-06
:PDN004:      0   -1    0  3.49768000E-03  4.267E-07  4.651E-06
:PDN005:      0    0   -1  6.57199021E-03 -1.606E-07 -4.853E-07
:PDN006:     -1    0   -1  6.80916692E-03 -6.975E-08  3.567E-07
:PDN007:     -1    0    1  6.80912360E-03 -6.911E-08  3.645E-07
:PDN008:     -1    1   -1  6.80868628E-03 -9.558E-08  1.192E-07
:PDN009:     -1    1    1  6.80855303E-03 -9.472E-08  1.332E-07
:PDN010:      0   -1   -1  6.80912281E-03 -8.490E-08 -6.861E-08
:PDN011:      0   -1    1  6.80916670E-03 -8.552E-08 -7.630E-08
:PDN012:     -2    1    0  6.07005768E-03  1.164E-07 -1.210E-06
:DMATW  1_1:    0.9989    0.9991    0.9991    0.9991    0.9990    0.9991    0.9988
:DMATW  1_2:    0.0006    0.0007    0.0007    0.0009    0.0007    0.0008    0.9975
:DMATW  1_3:   -0.0000    0.0000   -0.0000    0.0000   -0.0000   -0.0000    0.0000

:ENE  : ********** TOTAL ENERGY IN Ry =       -37373.01085308

:FOR001:   1.ATOM          0.000          0.000          0.000          0.000 partial forces
:FOR002:   2.ATOM          0.000          0.000          0.000          0.000 partial forces
:FOR003:   3.ATOM          0.000          0.000          0.000          0.000 partial forces
:FOR004:   4.ATOM          0.075         -0.055          0.051          0.000 partial forces
:FOR005:   5.ATOM          0.000          0.000          0.000          0.000 partial forces
       TOTAL FORCE WITH RESPECT TO THE GLOBAL COORDINATE SYSTEM:
:FGL001:   1.ATOM                 0.000000000     0.000000000     0.000000000 partial forces
:FGL002:   2.ATOM                 0.000000000     0.000000000     0.000000000 partial forces
:FGL003:   3.ATOM                 0.000000000     0.000000000     0.000000000 partial forces
:FGL004:   4.ATOM                -0.062950758     0.019970788     0.000000000 partial forces
:FGL005:   5.ATOM                 0.000000000     0.000000000     0.000000000 partial forces
