
:LABEL1: Calculations in /pscratch/sd/z/zhang714/cmae_jobs/cmae-main/test_TbCo5/75_n30_regular/case
:LABEL2: on nid005430 at Mon Feb 23 05:01:04 PM PST 2026
:LABEL3: using WIEN2k_24.1 (Release 1/8/2024) in /global/homes/z/zhang714/github/wien2k/src

:LABEL4: using the command: runsp_lapw -so -p -cc 0.001 -ec 0.00001 -i 100

 Euler-Maclaurian Coulomb
 Consistent 3/8+Simpson combinations at start/end
 New Mode for Coulomb Integral
 Extension of core to zero
 LDM version in phi
 Fifth-order quadrature in outwin
 Lebedev-Laikov Grid in lapw0


            ---------
:ITE001:  1. ITERATION
            ---------

:NATO :    5 INDEPENDENT AND    6 TOTAL ATOMS IN UNITCELL
       SUBSTANCE: blebleble                                s-o calc. M||  0.10

       LATTICE                      = H   
:LAT  : LATTICE CONSTANTS=  9.34658  9.34658  7.54001
:VOL  : UNIT CELL VOLUME =     570.43781
:POT  : POTENTIAL OPTION EX_PBE EC_PBE VX_PBE VC_PBE
       MODE OF CALCULATION IS       = RELA
       SPINPOLARIZED CALCULATION
:IFFT  : FFT-parameters:   96   96   80 Factor: 2.00


   CONVERGENCE PARAMETER FOR PSEUDOCHARGE: NCON=  9
   MAXIMAL VALUE OF RMT(JATOM)*ABSK(NKK) : RK  =39.99508


:VKCOUL :  VK-COUL convergence: 0.201E-09
 Lebedev grid of          350
 :rho_min:   2.0000000000000000E-008   1.0000000000000001E-009
:VCOUL001 ATOMNUMBER=  1 Co1     VCOUL-ZERO =  0.54631E+00
:EFG001:                        EFG         =    -0.14524   *10**21  V / m**2
                               V20  TOT/SRF=     0.02223     0.03257
                               V22  TOT/SRF=    -0.06619    -0.12419
                               V22M TOT/SRF=     0.11468     0.21516
                               V21  TOT/SRF=     0.00000     0.00000
                               V21M TOT/SRF=     0.00000     0.00000

             -0.07902    0.11468    0.00000       -0.14524    0.00000    0.00000
              0.11468    0.05335    0.00000        0.00000    0.11957    0.00000
              0.00000    0.00000    0.02567        0.00000    0.00000    0.02567

         MAIN DIRECTIONS OF THE EFG   1.0000  0.5775  0.0000
                                     -0.5775  1.0000  0.0000
                                     -0.0000 -0.0000  1.0000
:ANG001:  ANGLE WITH OLD X-AXIS =        30.0

:ETA001:                         ASYMM. ETA =     0.64651


:VCOUL002 ATOMNUMBER=  2 Co1     VCOUL-ZERO =  0.54630E+00
:EFG002:                        EFG         =    -0.14525   *10**21  V / m**2
                               V20  TOT/SRF=     0.02223     0.03256
                               V22  TOT/SRF=     0.13242     0.24845
                               V22M TOT/SRF=     0.00000     0.00000
                               V21  TOT/SRF=     0.00000     0.00000
                               V21M TOT/SRF=     0.00000     0.00000

              0.11959    0.00000    0.00000        0.11959    0.00000    0.00000
              0.00000   -0.14525    0.00000        0.00000   -0.14525    0.00000
              0.00000    0.00000    0.02566        0.00000    0.00000    0.02566

         MAIN DIRECTIONS OF THE EFG   1.0000 -0.0000  0.0000
                                      0.0000  1.0000  0.0000
                                      0.0000  0.0000  1.0000
:ANG002:  ANGLE WITH OLD X-AXIS =         0.0

:ETA002:                         ASYMM. ETA =     0.64663


:VCOUL003 ATOMNUMBER=  3 Co1     VCOUL-ZERO =  0.54631E+00
:EFG003:                        EFG         =    -0.14524   *10**21  V / m**2
                               V20  TOT/SRF=     0.02223     0.03257
                               V22  TOT/SRF=    -0.06619    -0.12419
                               V22M TOT/SRF=    -0.11468    -0.21516
                               V21  TOT/SRF=     0.00000     0.00000
                               V21M TOT/SRF=     0.00000     0.00000

             -0.07902   -0.11468    0.00000       -0.14524    0.00000    0.00000
             -0.11468    0.05335    0.00000        0.00000    0.11957    0.00000
              0.00000    0.00000    0.02567        0.00000    0.00000    0.02567

         MAIN DIRECTIONS OF THE EFG   1.0000 -0.5775  0.0000
                                      0.5775  1.0000  0.0000
                                     -0.0000 -0.0000  1.0000
:ANG003:  ANGLE WITH OLD X-AXIS =        30.0

:ETA003:                         ASYMM. ETA =     0.64650


:VCOUL004 ATOMNUMBER=  4 Co2     VCOUL-ZERO =  0.53118E+00
:EFG004:                        EFG         =     0.06800   *10**21  V / m**2
                               V20  TOT/SRF=     0.05889     0.14444
                               V22  TOT/SRF=    -0.00000    -0.00000
                               V22M TOT/SRF=    -0.00000    -0.00000
                               V21  TOT/SRF=     0.00000     0.00000
                               V21M TOT/SRF=     0.00000     0.00000

             -0.03400   -0.00000    0.00000       -0.03400    0.00000    0.00000
             -0.00000   -0.03400    0.00000        0.00000   -0.03400    0.00000
              0.00000    0.00000    0.06800        0.00000    0.00000    0.06800

         MAIN DIRECTIONS OF THE EFG   1.0000 -0.0139  0.0000
                                      0.0139  1.0000  0.0000
                                     -0.0000 -0.0000  1.0000
:ANG004:  ANGLE WITH OLD X-AXIS =         0.8

:ETA004:                         ASYMM. ETA =     0.00007


:VCOUL005 ATOMNUMBER=  5 Tb1     VCOUL-ZERO =  0.46773E+00
:EFG005:                        EFG         =    -0.06011   *10**21  V / m**2
                               V20  TOT/SRF=    -0.05205    -0.10149
                               V22  TOT/SRF=    -0.00001    -0.00000
                               V22M TOT/SRF=     0.00000     0.00000
                               V21  TOT/SRF=     0.00000     0.00000
                               V21M TOT/SRF=     0.00000     0.00000

              0.03004    0.00000    0.00000        0.03004    0.00000    0.00000
              0.00000    0.03006    0.00000        0.00000    0.03006    0.00000
              0.00000    0.00000   -0.06011        0.00000    0.00000   -0.06011

         MAIN DIRECTIONS OF THE EFG   1.0000  0.0031  0.0000
                                     -0.0031  1.0000  0.0000
                                     -0.0000 -0.0000  1.0000
:ANG005:  ANGLE WITH OLD X-AXIS =         0.2

:ETA005:                         ASYMM. ETA =     0.00030


     HELLMANN-FEYNMAN-FORCE IN mRy/a.u. = |F|  Fx       Fy             Fz
:FHF001:   1.ATOM      0.000000000000      0.000000000000      0.000000000000      0.000000000000

     HELLMANN-FEYNMAN-FORCE IN mRy/a.u. = |F|  Fx       Fy             Fz
:FHF002:   2.ATOM      0.000000000000      0.000000000000      0.000000000000      0.000000000000

     HELLMANN-FEYNMAN-FORCE IN mRy/a.u. = |F|  Fx       Fy             Fz
:FHF003:   3.ATOM      0.000000000000      0.000000000000      0.000000000000      0.000000000000

     HELLMANN-FEYNMAN-FORCE IN mRy/a.u. = |F|  Fx       Fy             Fz
:FHF004:   4.ATOM      0.040312446454      0.040312443443      0.000015581616      0.000000000000

     HELLMANN-FEYNMAN-FORCE IN mRy/a.u. = |F|  Fx       Fy             Fz
:FHF005:   5.ATOM      0.000000000000      0.000000000000      0.000000000000      0.000000000000

:FIT001: LUSE= 13 SIGMA OF V-XC FIT FOR ATOM  1  0.7059986E-03
:FIT001: LUSE= 13 SIGMA OF V-XC FIT FOR ATOM  1  0.9942214E-03
:FIT002: LUSE= 13 SIGMA OF V-XC FIT FOR ATOM  2  0.5570787E-03
:FIT002: LUSE= 13 SIGMA OF V-XC FIT FOR ATOM  2  0.1019206E-02
:FIT003: LUSE= 13 SIGMA OF V-XC FIT FOR ATOM  3  0.7059987E-03
:FIT003: LUSE= 13 SIGMA OF V-XC FIT FOR ATOM  3  0.9942212E-03
:FIT004: LUSE= 13 SIGMA OF V-XC FIT FOR ATOM  4  0.7020062E-03
:FIT004: LUSE= 13 SIGMA OF V-XC FIT FOR ATOM  4  0.8029772E-03
:FIT005: LUSE= 13 SIGMA OF V-XC FIT FOR ATOM  5  0.3583912E-03
:FIT005: LUSE= 13 SIGMA OF V-XC FIT FOR ATOM  5  0.5521157E-03
:DEN  : DENSITY INTEGRAL  =        -14939.17243347   (Ry)
       ELS_POTENTIAL_AT Z=0 and Z=0.5:  -0.82610  -0.42284
       ELS_POTENTIAL_AT Y=0 and Y=0.5:  -0.46384  -0.34632
:VZERO:v0,v0c,v0x  -1.75964  -0.82610  -0.93353 v5,v5c,v5x  -1.30842  -0.42284  -0.88558
:VZERY:v0,v0c,v0x  -1.32067  -0.46384  -0.85683 v5,v5c,v5x  -1.27041  -0.34632  -0.92409
:VZERX:v0,v0c,v0x  -1.32067  -0.46384  -0.85683 v5,v5c,v5x  -1.27038  -0.34630  -0.92409
:LMAX-WF:   10   Non-Spherical LMAX:   6

          ATOMIC SPHERE DEPENDENT PARAMETERS FOR ATOM  Co1       
:e__0001: OVERALL ENERGY PARAMETER IS    0.3000
          OVERALL BASIS SET ON ATOM IS LAPW
:E1_0001: E( 1)=    0.3000
             APW+lo
:E1_0001: E( 1)=   -3.7891   E(BOTTOM)=   -3.824   E(TOP)=   -3.754  1  2   175
             LOCAL ORBITAL
:E2_0001: E( 2)=    0.3790   E(BOTTOM)=    0.141   E(TOP)=    0.617  0  1   122
             APW+lo
:E0_0001: E( 0)=    0.3000
             APW+lo

          ATOMIC SPHERE DEPENDENT PARAMETERS FOR ATOM  Co1       
:e__0002: OVERALL ENERGY PARAMETER IS    0.3000
          OVERALL BASIS SET ON ATOM IS LAPW
:E1_0002: E( 1)=    0.3000
             APW+lo
:E1_0002: E( 1)=   -3.7891   E(BOTTOM)=   -3.824   E(TOP)=   -3.754  1  2   180
             LOCAL ORBITAL
:E2_0002: E( 2)=    0.3790   E(BOTTOM)=    0.141   E(TOP)=    0.617  0  1   125
             APW+lo
:E0_0002: E( 0)=    0.3000
             APW+lo

          ATOMIC SPHERE DEPENDENT PARAMETERS FOR ATOM  Co1       
:e__0003: OVERALL ENERGY PARAMETER IS    0.3000
          OVERALL BASIS SET ON ATOM IS LAPW
:E1_0003: E( 1)=    0.3000
             APW+lo
:E1_0003: E( 1)=   -3.7891   E(BOTTOM)=   -3.824   E(TOP)=   -3.754  1  2   176
             LOCAL ORBITAL
:E2_0003: E( 2)=    0.3790   E(BOTTOM)=    0.141   E(TOP)=    0.617  0  1   123
             APW+lo
:E0_0003: E( 0)=    0.3000
             APW+lo

          ATOMIC SPHERE DEPENDENT PARAMETERS FOR ATOM  Co2       
:e__0004: OVERALL ENERGY PARAMETER IS    0.3000
          OVERALL BASIS SET ON ATOM IS LAPW
:E1_0004: E( 1)=    0.3000
             APW+lo
:E1_0004: E( 1)=   -3.8024   E(BOTTOM)=   -3.838   E(TOP)=   -3.767  1  2   175
             LOCAL ORBITAL
:E2_0004: E( 2)=    0.3654   E(BOTTOM)=    0.127   E(TOP)=    0.604  0  1   129
             APW+lo
:E0_0004: E( 0)=    0.3000
             APW+lo

          ATOMIC SPHERE DEPENDENT PARAMETERS FOR ATOM  Tb1       
:e__0005: OVERALL ENERGY PARAMETER IS    0.3000
          OVERALL BASIS SET ON ATOM IS LAPW
:E0_0005: E( 0)=    0.3000
             APW+lo
:E0_0005: E( 0)=   -2.6516   E(BOTTOM)=   -2.847   E(TOP)=   -2.456  4  5   183
             LOCAL ORBITAL
:E1_0005: E( 1)=    0.7000
             APW+lo
:E1_0005: E( 1)=   -0.9352   E(BOTTOM)=   -1.369   E(TOP)=   -0.502  3  4   172
             LOCAL ORBITAL
:E3_0005: E( 3)=    0.4519   E(BOTTOM)=    0.388   E(TOP)=    0.515  0  1   113
             APW+lo
:E2_0005: E( 2)=    0.4073   E(BOTTOM)=    0.407   E(TOP)= -520.000  2 -1    93
             APW+lo

       K=  0.031250  0.031250  0.029412            1
:RKM  : MATRIX SIZE   653LOs:  80  RKM= 9.00  WEIGHT= 2.00  PGR:    
       EIGENVALUES ARE:
:EIG00001:      -3.8043247   -3.7984230   -3.7965091   -3.7943958   -3.7943544
:EIG00006:      -3.7939373   -3.7939195   -3.7833740   -3.7832977   -3.7819721
:EIG00011:      -3.7819385   -3.7782177   -3.7750241   -3.7749660   -3.7717093
:EIG00016:      -2.6165642   -0.9166292   -0.9165443   -0.8905846   -0.0051009
:EIG00021:       0.2046593    0.2842850    0.2872593    0.2876139    0.2908442
:EIG00026:       0.2920457    0.3087558    0.3093162    0.3216690    0.3243896
:EIG00031:       0.3556781    0.3563207    0.3920827    0.3927716    0.4169286
:EIG00036:       0.4293185    0.4295831    0.4516931    0.4553773    0.4563058
:EIG00041:       0.4569010    0.4613485    0.4627447    0.4631793    0.4636948
:EIG00046:       0.4665144    0.4667835    0.4687456    0.4689442    0.5183732

:EIG00051:       0.5211531    0.5303324    0.6205081    0.6790488    0.6812145
:EIG00056:       0.7060073    0.7739650    0.7995664    0.8157118    0.9925817
:EIG00061:       0.9954386    1.1848239    1.2564635    1.2607452    1.3399588
:EIG00066:       1.3692699    1.4115884    1.4195382    1.4578632    1.4845894
:EIG00071:       1.4997659    1.6326807    1.6471719    1.7417384    1.7430471
:EIG00076:       1.8955357    1.9068696    2.1061370    2.1128699    2.2573455
:EIG00081:       2.3075990    2.3223533    2.3273471    2.3691336    2.3825113
:EIG00086:       2.4053275    2.4455188    2.4697439    2.5146897    2.5153898
:EIG00091:       2.6767295    2.7799351    2.7886356    2.8496032    2.9145939
:EIG00096:       2.9532677    2.9686484    2.9723553    2.9888875    3.0109116

:EIG00101:       3.0331444    3.0524197    3.1432381    3.1565927    3.2241681
:EIG00106:       3.2522132    3.2715034    3.2817923    3.3643369    3.3671159
:EIG00111:       3.4338731    3.4941847    3.5110124    3.5733490    3.5790894
:EIG00116:       3.6128575    3.6664438    3.7242708    3.7440341    3.7886206
:EIG00121:       3.7926940    3.8462189    4.0023581    4.0398413    4.0684770
:EIG00126:       4.0697309    4.1193215    4.1661309    4.2144842    4.2649691
:EIG00131:       4.3363526    4.3422602    4.3967079    4.4214732    4.4294061
:EIG00136:       4.4512020    4.4599813    4.4712333    4.5899057    4.5954866
:EIG00141:       4.6059007    4.6178789    4.6629028    4.6875921    4.7327898
:EIG00146:       4.7407385    4.7861170    4.8050793    4.8187322    4.8289455

:EIG00151:       4.8426046    4.8963707    4.9071782    4.9576151    4.9704254
:EIG00156:       5.0124964    5.0423926    5.0537208    5.1085765    5.1689700
:EIG00161:       5.1770506    5.2038988    5.2350777    5.3039588    5.3497966
:EIG00166:       5.3602985    5.4045648    5.4692648    5.4742840    5.4809667
       ********************************************************

:KPT   :      NUMBER OF K-POINTS:    2176
:LMAX-WF:   10   Non-Spherical LMAX:   6

          ATOMIC SPHERE DEPENDENT PARAMETERS FOR ATOM  Co1       
:e__0001: OVERALL ENERGY PARAMETER IS    0.3000
          OVERALL BASIS SET ON ATOM IS LAPW
:E1_0001: E( 1)=    0.3000
             APW+lo
:E1_0001: E( 1)=   -3.5545   E(BOTTOM)=   -3.593   E(TOP)=   -3.516  1  2   205
             LOCAL ORBITAL
:E2_0001: E( 2)=    0.5878   E(BOTTOM)=    0.323   E(TOP)=    0.852  0  1   131
             APW+lo
:E0_0001: E( 0)=    0.3000
             APW+lo

          ATOMIC SPHERE DEPENDENT PARAMETERS FOR ATOM  Co1       
:e__0002: OVERALL ENERGY PARAMETER IS    0.3000
          OVERALL BASIS SET ON ATOM IS LAPW
:E1_0002: E( 1)=    0.3000
             APW+lo
:E1_0002: E( 1)=   -3.5545   E(BOTTOM)=   -3.593   E(TOP)=   -3.516  1  2   202
             LOCAL ORBITAL
:E2_0002: E( 2)=    0.5878   E(BOTTOM)=    0.323   E(TOP)=    0.852  0  1   128
             APW+lo
:E0_0002: E( 0)=    0.3000
             APW+lo

          ATOMIC SPHERE DEPENDENT PARAMETERS FOR ATOM  Co1       
:e__0003: OVERALL ENERGY PARAMETER IS    0.3000
          OVERALL BASIS SET ON ATOM IS LAPW
:E1_0003: E( 1)=    0.3000
             APW+lo
:E1_0003: E( 1)=   -3.5545   E(BOTTOM)=   -3.593   E(TOP)=   -3.516  1  2   203
             LOCAL ORBITAL
:E2_0003: E( 2)=    0.5878   E(BOTTOM)=    0.323   E(TOP)=    0.852  0  1   129
             APW+lo
:E0_0003: E( 0)=    0.3000
             APW+lo

          ATOMIC SPHERE DEPENDENT PARAMETERS FOR ATOM  Co2       
:e__0004: OVERALL ENERGY PARAMETER IS    0.3000
          OVERALL BASIS SET ON ATOM IS LAPW
:E1_0004: E( 1)=    0.3000
             APW+lo
:E1_0004: E( 1)=   -3.5677   E(BOTTOM)=   -3.606   E(TOP)=   -3.530  1  2   198
             LOCAL ORBITAL
:E2_0004: E( 2)=    0.5745   E(BOTTOM)=    0.310   E(TOP)=    0.839  0  1   130
             APW+lo
:E0_0004: E( 0)=    0.3000
             APW+lo

          ATOMIC SPHERE DEPENDENT PARAMETERS FOR ATOM  Tb1       
:e__0005: OVERALL ENERGY PARAMETER IS    0.3000
          OVERALL BASIS SET ON ATOM IS LAPW
:E0_0005: E( 0)=    0.3000
             APW+lo
:E0_0005: E( 0)=   -2.4426   E(BOTTOM)=   -2.655   E(TOP)=   -2.230  4  5   208
             LOCAL ORBITAL
:E1_0005: E( 1)=    0.7000
             APW+lo
:E1_0005: E( 1)=   -0.7666   E(BOTTOM)=   -1.226   E(TOP)=   -0.307  3  4   195
             LOCAL ORBITAL
:E3_0005: E( 3)=    0.7929   E(BOTTOM)=    0.711   E(TOP)=    0.875  0  1   144
             APW+lo
:E2_0005: E( 2)=    0.5095   E(BOTTOM)=    0.510   E(TOP)= -520.000  2 -1    98
             APW+lo

       K=  0.031250  0.031250  0.029412            1
:RKM  : MATRIX SIZE   653LOs:  80  RKM= 9.00  WEIGHT= 2.00  PGR:    
       EIGENVALUES ARE:
:EIG00001:      -3.5701486   -3.5638232   -3.5619158   -3.5590569   -3.5590192
:EIG00006:      -3.5586372   -3.5586151   -3.5480035   -3.5479227   -3.5466122
:EIG00011:      -3.5465705   -3.5421557   -3.5392130   -3.5391456   -3.5357531
:EIG00016:      -2.4057311   -0.7565373   -0.7564166   -0.7269629    0.0592125
:EIG00021:       0.3540021    0.4093273    0.4178237    0.4505007    0.4623265
:EIG00026:       0.4624941    0.4677051    0.4704720    0.4938443    0.4942255
:EIG00031:       0.5434633    0.5441099    0.5791927    0.5804898    0.6251345
:EIG00036:       0.6360807    0.6364614    0.6588257    0.6588806    0.6712885
:EIG00041:       0.6806210    0.6808513    0.7068979    0.7344473    0.7469944
:EIG00046:       0.7550151    0.7569862    0.7884413    0.7917177    0.8024525

:EIG00051:       0.8093499    0.8094668    0.8240349    0.8330442    0.8379611
:EIG00056:       0.8666445    0.8830625    0.8981658    0.9322197    1.1016129
:EIG00061:       1.1043306    1.3053985    1.3664303    1.3718698    1.4403681
:EIG00066:       1.4628396    1.5052847    1.5080696    1.5345805    1.5870315
:EIG00071:       1.5943444    1.7139624    1.7333251    1.8023263    1.8108264
:EIG00076:       1.9709259    1.9818871    2.1962938    2.2019879    2.3269137
:EIG00081:       2.3523291    2.3665470    2.3816074    2.4296819    2.4475187
:EIG00086:       2.4694809    2.5113588    2.5373090    2.5829765    2.5835907
:EIG00091:       2.7202350    2.8349832    2.8457363    2.8894651    2.9821622
:EIG00096:       3.0170315    3.0506258    3.0593160    3.0688418    3.0728920

:EIG00101:       3.1042535    3.1139063    3.1864306    3.2004104    3.2888841
:EIG00106:       3.3135587    3.3163091    3.3340539    3.4300853    3.4329695
:EIG00111:       3.4948419    3.5518373    3.5778340    3.6326443    3.6362272
:EIG00116:       3.6686112    3.7265214    3.7823871    3.8084140    3.8543942
:EIG00121:       3.8553236    3.9183063    4.0598908    4.1098190    4.1358214
:EIG00126:       4.1380974    4.1707217    4.2225680    4.2803832    4.3451748
:EIG00131:       4.3965090    4.4029826    4.4542873    4.4809314    4.4862922
:EIG00136:       4.5138827    4.5336242    4.5371180    4.6520474    4.6571123
:EIG00141:       4.6649543    4.6757777    4.7214825    4.7475307    4.7797137
:EIG00146:       4.7874202    4.8336060    4.8569183    4.8645442    4.8797116

:EIG00151:       4.8909934    4.9495786    4.9641172    5.0173619    5.0299048
:EIG00156:       5.0748097    5.0929556    5.1053207    5.1768109    5.2287869
:EIG00161:       5.2385782    5.2699619    5.2959874    5.3662393    5.4229869
:EIG00166:       5.4355888    5.4638367
       ********************************************************

:KPT   :      NUMBER OF K-POINTS:    2176
  Potential not averaged when calculating dV/dr
  75.0 -30.0 angle (M,z), angle (M,x) deg

        SPIN-ORBIT EIGENVALUES:
     K=  0.031250  0.031250  0.029412            1
      MATRIX SIZE=  337   WEIGHT= 2.00
     EIGENVALUES ARE:
          -3.8558585   -3.8541993   -3.8445830   -3.8395142   -3.8362603
          -3.8136175   -3.8126181   -3.8078974   -3.7978015   -3.7947656
          -3.7524234   -3.7514915   -3.7411133   -3.7353187   -3.7326752
          -3.5881935   -3.5861516   -3.5768576   -3.5719011   -3.5676185
          -3.5461125   -3.5449455   -3.5418216   -3.5299859   -3.5267678
          -3.5170850   -3.5166996   -3.5062217   -3.4998865   -3.4972278
          -2.6165641   -2.4057311   -1.0760402   -1.0282045   -0.8056352
          -0.7374987   -0.6963616   -0.6476296   -0.0050908    0.0592251

           0.2045844    0.2840270    0.2870765    0.2874547    0.2907316
           0.2921465    0.3084683    0.3093145    0.3215521    0.3241216
           0.3538698    0.3551803    0.3564113    0.3918866    0.3929986
           0.4091620    0.4158846    0.4175868    0.4287668    0.4302869
           0.4374576    0.4435784    0.4492991    0.4498150    0.4539321
           0.4557423    0.4569136    0.4605167    0.4617598    0.4623311
           0.4654915    0.4670642    0.4678002    0.4689915    0.4708445
           0.4809239    0.4903721    0.4939896    0.4948344    0.5186784

           0.5212496    0.5308487    0.5430538    0.5443835    0.5790929
           0.5806309    0.6204111    0.6242164    0.6360321    0.6373793
           0.6578374    0.6602116    0.6706227    0.6781123    0.6811510
           0.6815877    0.6822333    0.7059802    0.7068625    0.7346665
           0.7467106    0.7547203    0.7569880    0.7742210    0.7804985
           0.7873990    0.8000747    0.8004771    0.8117131    0.8160909
           0.8199167    0.8289554    0.8363261    0.8409794    0.8678171
           0.8848124    0.8995035    0.9322223    0.9919627    0.9955710

           1.1010911    1.1045423    1.1848801    1.2554894    1.2610991
           1.3054232    1.3398036    1.3655950    1.3700784    1.3728427
           1.4115889    1.4191724    1.4404576    1.4565524    1.4629915
           1.4844054    1.4980321    1.5054527    1.5089536    1.5358051
           1.5869376    1.5943822    1.6328494    1.6473514    1.7138974
           1.7327367    1.7429251    1.7439472    1.8023999    1.8100981
           1.8965754
       ********************************************************
:GAP (global)   :    0.0    Ry =     0.0   eV (metal)
:GAP (this spin):    0.0    Ry =     0.0   eV (metal)
         Bandranges (emin - emax) and occupancy:
:BAN00087:  87    0.540603    0.623924  1.00000000
:BAN00088:  88    0.541928    0.633326  1.00000000
:BAN00089:  89    0.565111    0.640723  1.00000000
:BAN00090:  90    0.577175    0.648515  1.00000000
:BAN00091:  91    0.579455    0.658170  0.99346181
:BAN00092:  92    0.586892    0.660428  0.97167277
:BAN00093:  93    0.615449    0.670774  0.92942290
:BAN00094:  94    0.620790    0.678809  0.79774633
:BAN00095:  95    0.627183    0.681151  0.27634644
:BAN00096:  96    0.645350    0.681610  0.03109187
:BAN00097:  97    0.653087    0.687291  0.00025786
:BAN00098:  98    0.665555    0.705980  0.00000000
:BAN00099:  99    0.671190    0.728812  0.00000000
:BAN00100: 100    0.679914    0.736325  0.00000000
:BAN00101: 101    0.686839    0.748346  0.00000000
:BAN00102: 102    0.698195    0.773921  0.00000000
        Energy to separate low and high energystates:   -0.05646


:NOE  : NUMBER OF ELECTRONS          =   94.000

:FER  : F E R M I - ENERGY(TETRAH.M.)=   0.6554487786
:GMA  : POTENTIAL AND CHARGE CUT-OFF  16.00 Ry**.5
 
:POS001: ATOM   -1 X,Y,Z = 0.50000 0.00000 0.50000  MULT= 1  ZZ= 27.000  Co1
 
       LMMAX 16
       LM=   0 0  2 0  2 2 -2 2  4 0  4 2 -4 2  4 4 -4 4  6 0  6 2 -6 2  6 4 -6 4  6 6 -6 6
 
:CHA001: TOTAL VALENCE CHARGE INSIDE SPHERE   1 =   7.9794    (RMT=  2.3000 )
:PCS001: PARTIAL CHARGES SPHERE =  1 S,P,D,F,PX,PY,PZ,D-Z2,D-X2Y2,D-XY,D-XZ,D-YZ
:QTL001: 0.2407 3.2111 4.5098 0.0131 1.0557 1.0806 1.0751 0.8954 0.8980 0.9069 0.9088 0.9006
        Q-s-low E-s-low   Q-p-low E-p-low   Q-d-low E-d-low   Q-f-low E-f-low
:EPL001:  0.0000 10.0000    2.9952 -3.7814    0.0000 10.0000    0.0000 10.0000
        Q-s-hi  E-s-hi    Q-p-hi  E-p-hi    Q-d-hi  E-d-hi    Q-f-hi  E-f-hi
:EPH001:  0.2402  0.2544    0.2158  0.3991    4.5092  0.4001    0.0130  0.3936
 
                      QXX         QXY         QYY         QZZ       UP TO R
:VZZ001:             1.67780    -2.50258    -1.22679    -0.45100       2.300
 
:POS002: ATOM   -2 X,Y,Z = 0.00000 0.50000 0.50000  MULT= 1  ZZ= 27.000  Co1
 
       LMMAX 16
       LM=   0 0  2 0  2 2 -2 2  4 0  4 2 -4 2  4 4 -4 4  6 0  6 2 -6 2  6 4 -6 4  6 6 -6 6
 
:CHA002: TOTAL VALENCE CHARGE INSIDE SPHERE   2 =   7.9794    (RMT=  2.3000 )
:PCS002: PARTIAL CHARGES SPHERE =  2 S,P,D,F,PX,PY,PZ,D-Z2,D-X2Y2,D-XY,D-XZ,D-YZ
:QTL002: 0.2404 3.2109 4.5099 0.0132 1.0929 1.0433 1.0749 0.8952 0.9109 0.8942 0.8964 0.9127
        Q-s-low E-s-low   Q-p-low E-p-low   Q-d-low E-d-low   Q-f-low E-f-low
:EPL002:  0.0000 10.0000    2.9952 -3.7814    0.0000 10.0000    0.0000 10.0000
        Q-s-hi  E-s-hi    Q-p-hi  E-p-hi    Q-d-hi  E-d-hi    Q-f-hi  E-f-hi
:EPH002:  0.2397  0.2544    0.2156  0.3992    4.5093  0.4001    0.0132  0.3940
 
                      QXX         QXY         QYY         QZZ       UP TO R
:VZZ002:            -2.65676     0.00442     3.11336    -0.45664       2.300
 
:POS003: ATOM   -3 X,Y,Z = 0.50000 0.50000 0.50000  MULT= 1  ZZ= 27.000  Co1
 
       LMMAX 16
       LM=   0 0  2 0  2 2 -2 2  4 0  4 2 -4 2  4 4 -4 4  6 0  6 2 -6 2  6 4 -6 4  6 6 -6 6
 
:CHA003: TOTAL VALENCE CHARGE INSIDE SPHERE   3 =   7.9796    (RMT=  2.3000 )
:PCS003: PARTIAL CHARGES SPHERE =  3 S,P,D,F,PX,PY,PZ,D-Z2,D-X2Y2,D-XY,D-XZ,D-YZ
:QTL003: 0.2405 3.2110 4.5098 0.0130 1.0558 1.0804 1.0746 0.8951 0.8981 0.9068 0.9088 0.9007
        Q-s-low E-s-low   Q-p-low E-p-low   Q-d-low E-d-low   Q-f-low E-f-low
:EPL003:  0.0000 10.0000    2.9952 -3.7814    0.0000 10.0000    0.0000 10.0000
        Q-s-hi  E-s-hi    Q-p-hi  E-p-hi    Q-d-hi  E-d-hi    Q-f-hi  E-f-hi
:EPH003:  0.2399  0.2544    0.2157  0.3992    4.5094  0.4001    0.0130  0.3937
 
                      QXX         QXY         QYY         QZZ       UP TO R
:VZZ003:             1.66741     2.50480    -1.22850    -0.43893       2.300
 
:POS004: ATOM   -4 X,Y,Z = 0.33333 0.66667 0.00000  MULT= 2  ZZ= 27.000  Co2
 
       LMMAX 28
       LM=   0 0  1 1 -1 1  2 0  2 2 -2 2  3 1 -3 1  3 3 -3 3  4 0  4 2 -4 2  4 4 -4 4  5 1 -5 1
         5 3 -5 3  5 5 -5 5  6 0  6 2 -6 2  6 4 -6 4  6 6 -6 6
 
:CHA004: TOTAL VALENCE CHARGE INSIDE SPHERE   4 =   7.9973    (RMT=  2.3000 )
:PCS004: PARTIAL CHARGES SPHERE =  4 S,P,D,F,PX,PY,PZ,D-Z2,D-X2Y2,D-XY,D-XZ,D-YZ
:QTL004: 0.2509 3.2118 4.5181 0.0128 1.0608 1.0606 1.0905 0.9113 0.9097 0.9096 0.8938 0.8940
        Q-s-low E-s-low   Q-p-low E-p-low   Q-d-low E-d-low   Q-f-low E-f-low
:EPL004:  0.0024 -1.0005    2.9958 -3.7933    0.0025 -1.2350    0.0000 10.0000
        Q-s-hi  E-s-hi    Q-p-hi  E-p-hi    Q-d-hi  E-d-hi    Q-f-hi  E-f-hi
:EPH004:  0.2492  0.2741    0.2152  0.4092    4.5157  0.3870    0.0126  0.4036
 
                      QXX         QXY         QYY         QZZ       UP TO R
:VZZ004:             1.11203    -0.00386     1.11246    -2.22450       2.300
 
:POS005: ATOM   -5 X,Y,Z = 0.00000 0.00000 0.00000  MULT= 1  ZZ= 65.000  Tb1
 
       LMMAX 16
       LM=   0 0  2 0  2 2 -2 2  4 0  4 2 -4 2  4 4 -4 4  6 0  6 2 -6 2  6 4 -6 4  6 6 -6 6
 
:CHA005: TOTAL VALENCE CHARGE INSIDE SPHERE   5 =  11.0142    (RMT=  2.5000 )
:PCS005: PARTIAL CHARGES SPHERE =  5 S,P,D,F,PX,PY,PZ,D-Z2,D-X2Y2,D-XY,D-XZ,D-YZ
:QTL005: 1.0470 2.8704 0.2268 6.8676 0.9590 0.9592 0.9519 0.0304 0.0626 0.0621 0.0355 0.0359
        Q-s-low E-s-low   Q-p-low E-p-low   Q-d-low E-d-low   Q-f-low E-f-low
:EPL005:  0.9856 -2.6163    2.7791 -0.9175    0.0000 10.0000    0.0000 10.0000
        Q-s-hi  E-s-hi    Q-p-hi  E-p-hi    Q-d-hi  E-d-hi    Q-f-hi  E-f-hi
:EPH005:  0.0621  0.3428    0.0914  0.3770    0.2267  0.4329    6.8675  0.4622
 
                      QXX         QXY         QYY         QZZ       UP TO R
:VZZ005:            -2.46397    -0.34178    -2.95413     5.41807       2.500
 
:CHA  : TOTAL VALENCE CHARGE INSIDE UNIT CELL =      54.482201
 
:SUM  : SUM OF EIGENVALUES =         -47.979658877
 
:GAP (global)   :    0.0    Ry =     0.0   eV (metal)
:GAP (this spin):    0.0    Ry =     0.0   eV (metal)
         Bandranges (emin - emax) and occupancy:
:BAN00087:  87    0.540603    0.623924  1.00000000
:BAN00088:  88    0.541928    0.633326  1.00000000
:BAN00089:  89    0.565111    0.640723  1.00000000
:BAN00090:  90    0.577175    0.648515  1.00000000
:BAN00091:  91    0.579455    0.658170  0.99346181
:BAN00092:  92    0.586892    0.660428  0.97167277
:BAN00093:  93    0.615449    0.670774  0.92942290
:BAN00094:  94    0.620790    0.678809  0.79774633
:BAN00095:  95    0.627183    0.681151  0.27634644
:BAN00096:  96    0.645350    0.681610  0.03109187
:BAN00097:  97    0.653087    0.687291  0.00025786
:BAN00098:  98    0.665555    0.705980  0.00000000
:BAN00099:  99    0.671190    0.728812  0.00000000
:BAN00100: 100    0.679914    0.736325  0.00000000
:BAN00101: 101    0.686839    0.748346  0.00000000
:BAN00102: 102    0.698195    0.773921  0.00000000
        Energy to separate low and high energystates:   -0.05646


:NOE  : NUMBER OF ELECTRONS          =   94.000

:FER  : F E R M I - ENERGY(TETRAH.M.)=   0.6554487786
:GMA  : POTENTIAL AND CHARGE CUT-OFF  16.00 Ry**.5
 
:POS001: ATOM   -1 X,Y,Z = 0.50000 0.00000 0.50000  MULT= 1  ZZ= 27.000  Co1
 
       LMMAX 16
       LM=   0 0  2 0  2 2 -2 2  4 0  4 2 -4 2  4 4 -4 4  6 0  6 2 -6 2  6 4 -6 4  6 6 -6 6
 
:CHA001: TOTAL VALENCE CHARGE INSIDE SPHERE   1 =   6.1758    (RMT=  2.3000 )
:PCS001: PARTIAL CHARGES SPHERE =  1 S,P,D,F,PX,PY,PZ,D-Z2,D-X2Y2,D-XY,D-XZ,D-YZ
:QTL001: 0.2404 3.2249 2.6936 0.0130 1.0611 1.0844 1.0795 0.5810 0.5505 0.5128 0.5070 0.5418
        Q-s-low E-s-low   Q-p-low E-p-low   Q-d-low E-d-low   Q-f-low E-f-low
:EPL001:  0.0000 10.0000    2.9952 -3.5459    0.0000 10.0000    0.0000 10.0000
        Q-s-hi  E-s-hi    Q-p-hi  E-p-hi    Q-d-hi  E-d-hi    Q-f-hi  E-f-hi
:EPH001:  0.2395  0.3164    0.2299  0.4747    2.6927  0.5353    0.0128  0.5336
 
                      QXX         QXY         QYY         QZZ       UP TO R
:VZZ001:             2.02334    -1.82858    -0.07893    -1.94435       2.300
 
:POS002: ATOM   -2 X,Y,Z = 0.00000 0.50000 0.50000  MULT= 1  ZZ= 27.000  Co1
 
       LMMAX 16
       LM=   0 0  2 0  2 2 -2 2  4 0  4 2 -4 2  4 4 -4 4  6 0  6 2 -6 2  6 4 -6 4  6 6 -6 6
 
:CHA002: TOTAL VALENCE CHARGE INSIDE SPHERE   2 =   6.1755    (RMT=  2.3000 )
:PCS002: PARTIAL CHARGES SPHERE =  2 S,P,D,F,PX,PY,PZ,D-Z2,D-X2Y2,D-XY,D-XZ,D-YZ
:QTL002: 0.2402 3.2253 2.6933 0.0131 1.0962 1.0495 1.0796 0.5813 0.4950 0.5687 0.5594 0.4889
        Q-s-low E-s-low   Q-p-low E-p-low   Q-d-low E-d-low   Q-f-low E-f-low
:EPL002:  0.0000 10.0000    2.9952 -3.5459    0.0000 10.0000    0.0000 10.0000
        Q-s-hi  E-s-hi    Q-p-hi  E-p-hi    Q-d-hi  E-d-hi    Q-f-hi  E-f-hi
:EPH002:  0.2395  0.3164    0.2304  0.4747    2.6926  0.5353    0.0128  0.5337
 
                      QXX         QXY         QYY         QZZ       UP TO R
:VZZ002:            -1.17600     0.03229     3.10121    -1.92520       2.300
 
:POS003: ATOM   -3 X,Y,Z = 0.50000 0.50000 0.50000  MULT= 1  ZZ= 27.000  Co1
 
       LMMAX 16
       LM=   0 0  2 0  2 2 -2 2  4 0  4 2 -4 2  4 4 -4 4  6 0  6 2 -6 2  6 4 -6 4  6 6 -6 6
 
:CHA003: TOTAL VALENCE CHARGE INSIDE SPHERE   3 =   6.1753    (RMT=  2.3000 )
:PCS003: PARTIAL CHARGES SPHERE =  3 S,P,D,F,PX,PY,PZ,D-Z2,D-X2Y2,D-XY,D-XZ,D-YZ
:QTL003: 0.2405 3.2253 2.6930 0.0130 1.0611 1.0846 1.0794 0.5814 0.5499 0.5131 0.5070 0.5414
        Q-s-low E-s-low   Q-p-low E-p-low   Q-d-low E-d-low   Q-f-low E-f-low
:EPL003:  0.0000 10.0000    2.9952 -3.5459    0.0000 10.0000    0.0000 10.0000
        Q-s-hi  E-s-hi    Q-p-hi  E-p-hi    Q-d-hi  E-d-hi    Q-f-hi  E-f-hi
:EPH003:  0.2395  0.3164    0.2302  0.4747    2.6921  0.5353    0.0129  0.5336
 
                      QXX         QXY         QYY         QZZ       UP TO R
:VZZ003:             2.00534     1.86199    -0.05826    -1.94700       2.300
 
:POS004: ATOM   -4 X,Y,Z = 0.33333 0.66667 0.00000  MULT= 2  ZZ= 27.000  Co2
 
       LMMAX 28
       LM=   0 0  1 1 -1 1  2 0  2 2 -2 2  3 1 -3 1  3 3 -3 3  4 0  4 2 -4 2  4 4 -4 4  5 1 -5 1
         5 3 -5 3  5 5 -5 5  6 0  6 2 -6 2  6 4 -6 4  6 6 -6 6
 
:CHA004: TOTAL VALENCE CHARGE INSIDE SPHERE   4 =   6.4387    (RMT=  2.3000 )
:PCS004: PARTIAL CHARGES SPHERE =  4 S,P,D,F,PX,PY,PZ,D-Z2,D-X2Y2,D-XY,D-XZ,D-YZ
:QTL004: 0.2335 3.2200 2.9700 0.0128 1.0606 1.0607 1.0986 0.5578 0.6211 0.6216 0.5849 0.5846
        Q-s-low E-s-low   Q-p-low E-p-low   Q-d-low E-d-low   Q-f-low E-f-low
:EPL004:  0.0026 -0.8514    2.9952 -3.5575    0.0032 -1.1042    0.0000 10.0000
        Q-s-hi  E-s-hi    Q-p-hi  E-p-hi    Q-d-hi  E-d-hi    Q-f-hi  E-f-hi
:EPH004:  0.2314  0.3135    0.2235  0.4765    2.9676  0.5350    0.0124  0.5466
 
                      QXX         QXY         QYY         QZZ       UP TO R
:VZZ004:            -0.03312     0.01785    -0.02110     0.05427       2.300
 
:POS005: ATOM   -5 X,Y,Z = 0.00000 0.00000 0.00000  MULT= 1  ZZ= 65.000  Tb1
 
       LMMAX 16
       LM=   0 0  2 0  2 2 -2 2  4 0  4 2 -4 2  4 4 -4 4  6 0  6 2 -6 2  6 4 -6 4  6 6 -6 6
 
:CHA005: TOTAL VALENCE CHARGE INSIDE SPHERE   5 =   4.2642    (RMT=  2.5000 )
:PCS005: PARTIAL CHARGES SPHERE =  5 S,P,D,F,PX,PY,PZ,D-Z2,D-X2Y2,D-XY,D-XZ,D-YZ
:QTL005: 1.0423 2.8552 0.2536 0.1109 0.9534 0.9536 0.9481 0.0362 0.0620 0.0620 0.0467 0.0466
        Q-s-low E-s-low   Q-p-low E-p-low   Q-d-low E-d-low   Q-f-low E-f-low
:EPL005:  0.9824 -2.4054    2.7420 -0.7573    0.0000 10.0000    0.0000 10.0000
        Q-s-hi  E-s-hi    Q-p-hi  E-p-hi    Q-d-hi  E-d-hi    Q-f-hi  E-f-hi
:EPH005:  0.0590  0.3796    0.1131  0.4646    0.2534  0.5062    0.1109  0.5310
 
                      QXX         QXY         QYY         QZZ       UP TO R
:VZZ005:            -2.03957     0.24817    -1.74900     3.78857       2.500
 
:CHA  : TOTAL VALENCE CHARGE INSIDE UNIT CELL =      39.517798
 
:SUM  : SUM OF EIGENVALUES =         -47.604398642
 

        1.ATOM      Co1                   5 CORE STATES
:1S 001: 1S                -556.759278885 Ry
:2S 001: 2S                 -64.915703655 Ry
:2PP001: 2P*                -56.145876605 Ry
:2P 001: 2P                 -55.057746804 Ry
:3S 001: 3S                  -6.481070070 Ry

        2.ATOM      Co1                   5 CORE STATES
:1S 002: 1S                -556.759284154 Ry
:2S 002: 2S                 -64.915708928 Ry
:2PP002: 2P*                -56.145881876 Ry
:2P 002: 2P                 -55.057752075 Ry
:3S 002: 3S                  -6.481076382 Ry

        3.ATOM      Co1                   5 CORE STATES
:1S 003: 1S                -556.759278923 Ry
:2S 003: 2S                 -64.915703693 Ry
:2PP003: 2P*                -56.145876643 Ry
:2P 003: 2P                 -55.057746842 Ry
:3S 003: 3S                  -6.481070107 Ry

        4.ATOM      Co2                   5 CORE STATES
       CORE-FORCE in mRy/a.u. = |F|      Fx             Fy             Fz
:FCO004:   4.ATOM      0.014703510990     -0.014703509981     -0.000005446070      0.000000000000

:1S 004: 1S                -556.771689047 Ry
:2S 004: 2S                 -64.928210895 Ry
:2PP004: 2P*                -56.158362715 Ry
:2P 004: 2P                 -55.070235022 Ry
:3S 004: 3S                  -6.494269169 Ry

        5.ATOM      Tb1                  14 CORE STATES
:1S 005: 1S               -3806.808631355 Ry
:2S 005: 2S                -630.032852897 Ry
:2PP005: 2P*               -598.617017584 Ry
:2P 005: 2P                -543.745154422 Ry
:3S 005: 3S                -139.236532831 Ry
:3PP005: 3P*               -125.581525768 Ry
:3P 005: 3P                -114.266861657 Ry
:3DD005: 3D*                -90.755306420 Ry
:3D 005: 3D                 -88.287972324 Ry
:4S 005: 4S                 -27.124789415 Ry
:4PP005: 4P*                -21.776812164 Ry
:4P 005: 4P                 -19.245848752 Ry
:4DD005: 4D*                -10.441240300 Ry
:4D 005: 4D                  -9.982302509 Ry

        1.ATOM      Co1                   5 CORE STATES
:1S 001: 1S                -556.759484412 Ry
:2S 001: 2S                 -64.804032270 Ry
:2PP001: 2P*                -56.063336812 Ry
:2P 001: 2P                 -54.972609348 Ry
:3S 001: 3S                  -6.240222185 Ry

        2.ATOM      Co1                   5 CORE STATES
:1S 002: 1S                -556.759489681 Ry
:2S 002: 2S                 -64.804037542 Ry
:2PP002: 2P*                -56.063342083 Ry
:2P 002: 2P                 -54.972614619 Ry
:3S 002: 3S                  -6.240225749 Ry

        3.ATOM      Co1                   5 CORE STATES
:1S 003: 1S                -556.759484450 Ry
:2S 003: 2S                 -64.804032308 Ry
:2PP003: 2P*                -56.063336850 Ry
:2P 003: 2P                 -54.972609386 Ry
:3S 003: 3S                  -6.240222222 Ry

        4.ATOM      Co2                   5 CORE STATES
       CORE-FORCE in mRy/a.u. = |F|      Fx             Fy             Fz
:FCO004:   4.ATOM      0.013372301974     -0.013372300871     -0.000005429020      0.000000000000

:1S 004: 1S                -556.771892856 Ry
:2S 004: 2S                 -64.816524079 Ry
:2PP004: 2P*                -56.075810329 Ry
:2P 004: 2P                 -54.985084688 Ry
:3S 004: 3S                  -6.253318123 Ry

        5.ATOM      Tb1                  14 CORE STATES
:1S 005: 1S               -3806.808616444 Ry
:2S 005: 2S                -630.027319462 Ry
:2PP005: 2P*               -598.613784470 Ry
:2P 005: 2P                -543.740701935 Ry
:3S 005: 3S                -139.063680477 Ry
:3PP005: 3P*               -125.425696513 Ry
:3P 005: 3P                -114.087343855 Ry
:3DD005: 3D*                -90.626274019 Ry
:3D 005: 3D                 -88.152920673 Ry
:4S 005: 4S                 -26.731626289 Ry
:4PP005: 4P*                -21.384237594 Ry
:4P 005: 4P                 -18.858073600 Ry
:4DD005: 4D*                -10.055550044 Ry
:4D 005: 4D                  -9.598394838 Ry
:CINT001 Core Integral Atom   1 Up    5.99960901 Dn   5.999565 Total  11.99917441
:CINT002 Core Integral Atom   2 Up    5.99960879 Dn   5.999566 Total  11.99917455
:CINT003 Core Integral Atom   3 Up    5.99960901 Dn   5.999565 Total  11.99917441
:CINT004 Core Integral Atom   4 Up    5.99960861 Dn   5.999566 Total  11.99917431
:CINT005 Core Integral Atom   5 Up   22.99997624 Dn  22.999972 Total  45.99994860

       DENSITY AT NUCLEUS
        JATOM        VALENCE       SEMI-CORE          CORE           TOTAL
:RTO001:   1        8.625853        0.000000    17495.961944    17504.587797
:RTO002:   2        8.625715        0.000000    17495.962004    17504.587718
:RTO003:   3        8.625294        0.000000    17495.961944    17504.587238
:RTO004:   4        8.737137        0.000000    17495.942580    17504.679717
:RTO005:   5     1230.153952        0.000000  1219623.699687  1220853.853639

       HYPERFINE FIELDS FOR THOMSON RADIUS
:HFF001:           34.268           0.000        -362.596        -328.328 (KGAUSS)
:HFF002:           34.323           0.000        -362.703        -328.380 (KGAUSS)
:HFF003:           34.068           0.000        -362.596        -328.527 (KGAUSS)
:HFF004:          184.066           0.000        -363.493        -179.428 (KGAUSS)
:HFF005:         2435.583           0.000       -2547.920        -112.337 (KGAUSS)
:K-LIST:Reduced k-vector list    19745    2293
     
       CHARGES OF NEW CHARGE DENSITY
:NTO   : INTERSTITIAL      UP =     3.534454 DN =     3.849022 TOT =     7.383476
:NPC   : INTERSTITIAL      UP =    10.872047 DN =    10.161666 TOT =    21.033713
:NTO001: CHARGE SPHERE   1 UP =   13.979131 DN =   12.175302 TOT =   26.154433
:NTO002: CHARGE SPHERE   2 UP =   13.979274 DN =   12.175256 TOT =   26.154530
:NTO003: CHARGE SPHERE   3 UP =   13.979192 DN =   12.174885 TOT =   26.154078
:NTO004: CHARGE SPHERE   4 UP =   13.996938 DN =   12.438493 TOT =   26.435431
:NTO005: CHARGE SPHERE   5 UP =   34.014294 DN =   27.264147 TOT =   61.278441

:NEC01: NUCLEAR AND ELECTRONIC CHARGE    200.00000000   199.99582058 Plane Wave
     
       CHARGES OF OLD CHARGE DENSITY
:OTO   : INTERSTITIAL      UP =     4.000058 DN =     3.282715 TOT =     7.282773
:OPC   : INTERSTITIAL      UP =    14.090380 DN =     9.578846 TOT =    23.669226
:OTO001: CHARGE SPHERE   1 UP =   14.474701 DN =   11.521584 TOT =   25.996285
:OTO002: CHARGE SPHERE   2 UP =   14.474698 DN =   11.521582 TOT =   25.996280
:OTO003: CHARGE SPHERE   3 UP =   14.474701 DN =   11.521584 TOT =   25.996285
:OTO004: CHARGE SPHERE   4 UP =   14.477810 DN =   11.516740 TOT =   25.994549
:OTO005: CHARGE SPHERE   5 UP =   34.620218 DN =   28.119049 TOT =   62.739267

:NEC02: NUCLEAR AND ELECTRONIC CHARGE    200.00000000   199.99998808 Total

:VSOld: Total Rescaling   1.00000006
     
       CONVERGENCE TEST
:DTO001: DIFFERENCE SPHERE  1 UP =  0.6271416 DN =  0.5839961 TOT =  1.2111376
:DTO002: DIFFERENCE SPHERE  2 UP =  0.6269759 DN =  0.5839590 TOT =  1.2109349
:DTO003: DIFFERENCE SPHERE  3 UP =  0.6271100 DN =  0.5835252 TOT =  1.2106352
:DTO004: DIFFERENCE SPHERE  4 UP =  0.6170098 DN =  0.9073969 TOT =  1.5244067
:DTO005: DIFFERENCE SPHERE  5 UP =  0.3881361 DN =  1.4495907 TOT =  1.8377268

:DIS  :  CHARGE DISTANCE      (  1.4495907 for atom    5 spin 2)      2.8397493
 
******************************************************
* Multisecant Mixing Release 10.8.9                  *
* Standard Mode with step bound                      *
* Multisecant MSR1 Algorithm                         *
* Regularization       2.000E-04                     *
* Minimum Greed        1.000E-03                     *
* Max Number of Memory Steps    8                    *
******************************************************
 

:FULLRMS/Atom   1.3272047396
:PLANE:  PW /ATOM     1.12494 DISTAN   5.38E-01 %  4.78E+01
:CHARG:  CLM/ATOM   260.61572 DISTAN   7.46E-01 %  2.86E-01

Step History
        Dmix         Dmixt        Red     Pred      Step      Lambda    MagAbs    Beta
  1   3.5000E-01   3.5000E-01  1.00E+00  1.00E+00  1.00E-01  1.00E+00  1.14E-01  1.00E+00
:NOTE :  :INFO: Pratt in use
:TRUST:  Step  1.0E-01 Charge  3.3E-02 (e) CTO  2.2E-01 (e) PW  2.0E-01 (e)
:DIRP : |PRAT|= 4.839E-03 |PRATT|= 1.902E+00 ANGLE=   0.0 DEGREES
:DIRQ : |PRAT|= 6.708E-03 |PRATT|= 2.637E+00 ANGLE=   0.0 DEGREES
:DIRT : |PRAT|= 8.272E-03 |PRATT|= 3.251E+00 ANGLE=   0.0 DEGREES
  
:INFO: Pseudo Compensation for mesh of   64
  
:INFO: Pseudo Compensation Rescaling     9.99133E-01
  
:INFO: Pseudo Compensation Rescaling     1.00301E+00
  
:MIX  :  PRATT  REGULARIZATION:  2.00E-04 GREED: 0.00254                 
     
       CHARGES OF MIXED CHARGE DENSITY
:CTO   : INTERSTITIAL      UP =     3.998878 DN =     3.284161 TOT =     7.283040
:CPC   : INTERSTITIAL      UP =    12.414758 DN =     9.408242 TOT =    21.823000
:CTO001: CHARGE SPHERE   1 UP =   14.473441 DN =   11.523248 TOT =   25.996689
:CTO002: CHARGE SPHERE   2 UP =   14.473438 DN =   11.523246 TOT =   25.996684
:CTO003: CHARGE SPHERE   3 UP =   14.473441 DN =   11.523247 TOT =   25.996688
:CTO004: CHARGE SPHERE   4 UP =   14.476587 DN =   11.519086 TOT =   25.995673
:CTO005: CHARGE SPHERE   5 UP =   34.618678 DN =   28.116876 TOT =   62.735554

       SPIN MAGNETIC MOMENTS OF MIXED CHARGE DENSITY
:MMINT:  MAGNETIC MOMENT IN INTERSTITIAL  =    0.71472
:MMI001: MAGNETIC MOMENT IN SPHERE   1    =    2.95019
:MMI002: MAGNETIC MOMENT IN SPHERE   2    =    2.95019
:MMI003: MAGNETIC MOMENT IN SPHERE   3    =    2.95019
:MMI004: MAGNETIC MOMENT IN SPHERE   4    =    2.95750
:MMI005: MAGNETIC MOMENT IN SPHERE   5    =    6.50180
:MMTOT:  SPIN MAGNETIC MOMENT IN CELL     =   21.98210

:NEC03: NUCLEAR AND ELECTRONIC CHARGE    200.00000000   200.00000000

PW CHANGE     H    K    L      Current       Change    Residue
:PUP001:      0    0    0  2.87737523E-02 -2.940E-03 -6.444E-03
:PUP002:     -1    0    0  9.58687983E-04  3.412E-03  4.446E-03
:PUP003:     -1    1    0  9.58688703E-04  3.412E-03  4.446E-03
:PUP004:      0   -1    0  9.58639013E-04  3.412E-03  4.446E-03
:PUP005:      0    0   -1  5.16476693E-03  2.151E-03  3.351E-03
:PUP006:     -1    0   -1  6.25721552E-03  8.253E-04  1.484E-03
:PUP007:     -1    0    1  6.25721402E-03  8.253E-04  1.483E-03
:PUP008:     -1    1   -1  6.25720351E-03  8.252E-04  1.483E-03
:PUP009:     -1    1    1  6.25720200E-03  8.252E-04  1.482E-03
:PUP010:      0   -1   -1  6.25725156E-03  8.253E-04  1.483E-03
:PUP011:      0   -1    1  6.25725154E-03  8.253E-04  1.483E-03
:PUP012:     -2    1    0  6.28763995E-03 -2.415E-04 -9.355E-05
  
:PDN001:      0    0    0  2.22502847E-02 -2.965E-04  2.028E-03
:PDN002:     -1    0    0  1.82917067E-03  3.310E-03  3.923E-03
:PDN003:     -1    1    0  1.82908300E-03  3.310E-03  3.922E-03
:PDN004:      0   -1    0  1.82924939E-03  3.310E-03  3.922E-03
:PDN005:      0    0   -1  4.84315802E-03  2.756E-03  4.366E-03
:PDN006:     -1    0   -1  5.45753893E-03  1.840E-03  3.120E-03
:PDN007:     -1    0    1  5.45753907E-03  1.840E-03  3.120E-03
:PDN008:     -1    1   -1  5.45760206E-03  1.840E-03  3.120E-03
:PDN009:     -1    1    1  5.45760215E-03  1.840E-03  3.120E-03
:PDN010:      0   -1   -1  5.45746991E-03  1.840E-03  3.119E-03
:PDN011:      0   -1    1  5.45747021E-03  1.840E-03  3.119E-03
:PDN012:     -2    1    0  5.32305247E-03  1.184E-03  2.125E-03

:ENE  : ********** TOTAL ENERGY IN Ry =       -37373.14974319

:FOR001:   1.ATOM          0.000          0.000          0.000          0.000 partial forces
:FOR002:   2.ATOM          0.000          0.000          0.000          0.000 partial forces
:FOR003:   3.ATOM          0.000          0.000          0.000          0.000 partial forces
:FOR004:   4.ATOM          0.026          0.026          0.000          0.000 partial forces
:FOR005:   5.ATOM          0.000          0.000          0.000          0.000 partial forces
       TOTAL FORCE WITH RESPECT TO THE GLOBAL COORDINATE SYSTEM:
:FGL001:   1.ATOM                 0.000000000     0.000000000     0.000000000 partial forces
:FGL002:   2.ATOM                 0.000000000     0.000000000     0.000000000 partial forces
:FGL003:   3.ATOM                 0.000000000     0.000000000     0.000000000 partial forces
:FGL004:   4.ATOM                 0.030339223     0.015179756     0.000000000 partial forces
:FGL005:   5.ATOM                 0.000000000     0.000000000     0.000000000 partial forces
 Euler-Maclaurian Coulomb
 Consistent 3/8+Simpson combinations at start/end
 New Mode for Coulomb Integral
 Extension of core to zero
 LDM version in phi
 Fifth-order quadrature in outwin
 Lebedev-Laikov Grid in lapw0


            ---------
:ITE002:  2. ITERATION
            ---------

:NATO :    5 INDEPENDENT AND    6 TOTAL ATOMS IN UNITCELL
       SUBSTANCE: blebleble                                s-o calc. M||  0.10

       LATTICE                      = H   
:LAT  : LATTICE CONSTANTS=  9.34658  9.34658  7.54001
:VOL  : UNIT CELL VOLUME =     570.43781
:POT  : POTENTIAL OPTION EX_PBE EC_PBE VX_PBE VC_PBE
       MODE OF CALCULATION IS       = RELA
       SPINPOLARIZED CALCULATION
:IFFT  : FFT-parameters:   96   96   80 Factor: 2.00


   CONVERGENCE PARAMETER FOR PSEUDOCHARGE: NCON=  9
   MAXIMAL VALUE OF RMT(JATOM)*ABSK(NKK) : RK  =39.99508


:VKCOUL :  VK-COUL convergence: 0.241E-09
 Lebedev grid of          350
 :rho_min:   2.0000000000000000E-008   1.0000000000000001E-009
:VCOUL001 ATOMNUMBER=  1 Co1     VCOUL-ZERO =  0.54509E+00
:EFG001:                        EFG         =    -0.12858   *10**21  V / m**2
                               V20  TOT/SRF=     0.01672     0.03227
                               V22  TOT/SRF=    -0.05944    -0.12355
                               V22M TOT/SRF=     0.10301     0.21404
                               V21  TOT/SRF=     0.00000     0.00000
                               V21M TOT/SRF=     0.00000     0.00000

             -0.06909    0.10301    0.00000       -0.12858    0.00000    0.00000
              0.10301    0.04979    0.00000        0.00000    0.10928    0.00000
              0.00000    0.00000    0.01930        0.00000    0.00000    0.01930

         MAIN DIRECTIONS OF THE EFG   1.0000  0.5775  0.0000
                                     -0.5775  1.0000  0.0000
                                     -0.0000 -0.0000  1.0000
:ANG001:  ANGLE WITH OLD X-AXIS =        30.0

:ETA001:                         ASYMM. ETA =     0.69975


:VCOUL002 ATOMNUMBER=  2 Co1     VCOUL-ZERO =  0.54508E+00
:EFG002:                        EFG         =    -0.12855   *10**21  V / m**2
                               V20  TOT/SRF=     0.01674     0.03226
                               V22  TOT/SRF=     0.11889     0.24715
                               V22M TOT/SRF=     0.00009     0.00000
                               V21  TOT/SRF=     0.00000     0.00000
                               V21M TOT/SRF=     0.00000     0.00000

              0.10922    0.00009    0.00000        0.10922    0.00000    0.00000
              0.00009   -0.12855    0.00000        0.00000   -0.12855    0.00000
              0.00000    0.00000    0.01933        0.00000    0.00000    0.01933

         MAIN DIRECTIONS OF THE EFG   1.0000 -0.0004  0.0000
                                      0.0004  1.0000  0.0000
                                      0.0000  0.0000  1.0000
:ANG002:  ANGLE WITH OLD X-AXIS =         0.0

:ETA002:                         ASYMM. ETA =     0.69927


:VCOUL003 ATOMNUMBER=  3 Co1     VCOUL-ZERO =  0.54509E+00
:EFG003:                        EFG         =    -0.12854   *10**21  V / m**2
                               V20  TOT/SRF=     0.01674     0.03227
                               V22  TOT/SRF=    -0.05950    -0.12355
                               V22M TOT/SRF=    -0.10292    -0.21404
                               V21  TOT/SRF=     0.00000     0.00000
                               V21M TOT/SRF=     0.00000     0.00000

             -0.06916   -0.10292    0.00000       -0.12854    0.00000    0.00000
             -0.10292    0.04984    0.00000        0.00000    0.10922    0.00000
              0.00000    0.00000    0.01933        0.00000    0.00000    0.01933

         MAIN DIRECTIONS OF THE EFG   1.0000 -0.5770  0.0000
                                      0.5770  1.0000  0.0000
                                     -0.0000 -0.0000  1.0000
:ANG003:  ANGLE WITH OLD X-AXIS =        30.0

:ETA003:                         ASYMM. ETA =     0.69929


:VCOUL004 ATOMNUMBER=  4 Co2     VCOUL-ZERO =  0.53008E+00
:EFG004:                        EFG         =     0.06203   *10**21  V / m**2
                               V20  TOT/SRF=     0.05372     0.14365
                               V22  TOT/SRF=    -0.00002    -0.00000
                               V22M TOT/SRF=     0.00004    -0.00000
                               V21  TOT/SRF=     0.00000     0.00000
                               V21M TOT/SRF=     0.00000     0.00000

             -0.03103    0.00004    0.00000       -0.03106    0.00000    0.00000
              0.00004   -0.03100    0.00000        0.00000   -0.03098    0.00000
              0.00000    0.00000    0.06203        0.00000    0.00000    0.06203

         MAIN DIRECTIONS OF THE EFG   1.0000  0.6072  0.0000
                                     -0.6072  1.0000  0.0000
                                     -0.0000 -0.0000  1.0000
:ANG004:  ANGLE WITH OLD X-AXIS =        31.3

:ETA004:                         ASYMM. ETA =     0.00129


:VCOUL005 ATOMNUMBER=  5 Tb1     VCOUL-ZERO =  0.46502E+00
:EFG005:                        EFG         =    -0.03607   *10**21  V / m**2
                               V20  TOT/SRF=    -0.03124    -0.10069
                               V22  TOT/SRF=     0.00024    -0.00000
                               V22M TOT/SRF=    -0.00024    -0.00000
                               V21  TOT/SRF=     0.00000     0.00000
                               V21M TOT/SRF=     0.00000     0.00000

              0.01828   -0.00024    0.00000        0.01838    0.00000    0.00000
             -0.00024    0.01779    0.00000        0.00000    0.01769    0.00000
              0.00000    0.00000   -0.03607        0.00000    0.00000   -0.03607

         MAIN DIRECTIONS OF THE EFG   1.0000  0.4063  0.0000
                                     -0.4063  1.0000  0.0000
                                      0.0000  0.0000  1.0000
:ANG005:  ANGLE WITH OLD X-AXIS =        22.1

:ETA005:                         ASYMM. ETA =     0.01895


     HELLMANN-FEYNMAN-FORCE IN mRy/a.u. = |F|  Fx       Fy             Fz
:FHF001:   1.ATOM      0.000000000000      0.000000000000      0.000000000000      0.000000000000

     HELLMANN-FEYNMAN-FORCE IN mRy/a.u. = |F|  Fx       Fy             Fz
:FHF002:   2.ATOM      0.000000000000      0.000000000000      0.000000000000      0.000000000000

     HELLMANN-FEYNMAN-FORCE IN mRy/a.u. = |F|  Fx       Fy             Fz
:FHF003:   3.ATOM      0.000000000000      0.000000000000      0.000000000000      0.000000000000

     HELLMANN-FEYNMAN-FORCE IN mRy/a.u. = |F|  Fx       Fy             Fz
:FHF004:   4.ATOM      0.038115527185      0.038115524198     -0.000015090363      0.000000000000

     HELLMANN-FEYNMAN-FORCE IN mRy/a.u. = |F|  Fx       Fy             Fz
:FHF005:   5.ATOM      0.000000000000      0.000000000000      0.000000000000      0.000000000000

:FIT001: LUSE= 13 SIGMA OF V-XC FIT FOR ATOM  1  0.7044866E-03
:FIT001: LUSE= 13 SIGMA OF V-XC FIT FOR ATOM  1  0.9953758E-03
:FIT002: LUSE= 13 SIGMA OF V-XC FIT FOR ATOM  2  0.5559243E-03
:FIT002: LUSE= 13 SIGMA OF V-XC FIT FOR ATOM  2  0.1020390E-02
:FIT003: LUSE= 13 SIGMA OF V-XC FIT FOR ATOM  3  0.7044838E-03
:FIT003: LUSE= 13 SIGMA OF V-XC FIT FOR ATOM  3  0.9953793E-03
:FIT004: LUSE= 13 SIGMA OF V-XC FIT FOR ATOM  4  0.7003374E-03
:FIT004: LUSE= 13 SIGMA OF V-XC FIT FOR ATOM  4  0.8048004E-03
:FIT005: LUSE= 13 SIGMA OF V-XC FIT FOR ATOM  5  0.3588184E-03
:FIT005: LUSE= 13 SIGMA OF V-XC FIT FOR ATOM  5  0.5524793E-03
:DEN  : DENSITY INTEGRAL  =        -14938.54804684   (Ry)
       ELS_POTENTIAL_AT Z=0 and Z=0.5:  -0.83333  -0.40673
       ELS_POTENTIAL_AT Y=0 and Y=0.5:  -0.47718  -0.33471
:VZERO:v0,v0c,v0x  -1.73949  -0.83333  -0.90616 v5,v5c,v5x  -1.23705  -0.40673  -0.83031
:VZERY:v0,v0c,v0x  -1.32372  -0.47718  -0.84655 v5,v5c,v5x  -1.21812  -0.33471  -0.88341
:VZERX:v0,v0c,v0x  -1.32372  -0.47718  -0.84655 v5,v5c,v5x  -1.21809  -0.33468  -0.88341
:LMAX-WF:   10   Non-Spherical LMAX:   6

          ATOMIC SPHERE DEPENDENT PARAMETERS FOR ATOM  Co1       
:e__0001: OVERALL ENERGY PARAMETER IS    0.4036
          OVERALL BASIS SET ON ATOM IS LAPW
:E1_0001: E( 1)=    0.4036
             APW+lo
:E1_0001: E( 1)=   -3.7902   E(BOTTOM)=   -3.825   E(TOP)=   -3.755  1  2   177
             LOCAL ORBITAL
:E2_0001: E( 2)=    0.3779   E(BOTTOM)=    0.140   E(TOP)=    0.616  0  1   127
             APW+lo
:E0_0001: E( 0)=    0.4036
             APW+lo

          ATOMIC SPHERE DEPENDENT PARAMETERS FOR ATOM  Co1       
:e__0002: OVERALL ENERGY PARAMETER IS    0.4036
          OVERALL BASIS SET ON ATOM IS LAPW
:E1_0002: E( 1)=    0.4036
             APW+lo
:E1_0002: E( 1)=   -3.7902   E(BOTTOM)=   -3.825   E(TOP)=   -3.755  1  2   180
             LOCAL ORBITAL
:E2_0002: E( 2)=    0.3779   E(BOTTOM)=    0.140   E(TOP)=    0.616  0  1   125
             APW+lo
:E0_0002: E( 0)=    0.4036
             APW+lo

          ATOMIC SPHERE DEPENDENT PARAMETERS FOR ATOM  Co1       
:e__0003: OVERALL ENERGY PARAMETER IS    0.4036
          OVERALL BASIS SET ON ATOM IS LAPW
:E1_0003: E( 1)=    0.4036
             APW+lo
:E1_0003: E( 1)=   -3.7902   E(BOTTOM)=   -3.825   E(TOP)=   -3.755  1  2   179
             LOCAL ORBITAL
:E2_0003: E( 2)=    0.3779   E(BOTTOM)=    0.140   E(TOP)=    0.616  0  1   127
             APW+lo
:E0_0003: E( 0)=    0.4036
             APW+lo

          ATOMIC SPHERE DEPENDENT PARAMETERS FOR ATOM  Co2       
:e__0004: OVERALL ENERGY PARAMETER IS    0.4036
          OVERALL BASIS SET ON ATOM IS LAPW
:E1_0004: E( 1)=    0.4036
             APW+lo
:E1_0004: E( 1)=   -3.8026   E(BOTTOM)=   -3.838   E(TOP)=   -3.767  1  2   175
             LOCAL ORBITAL
:E2_0004: E( 2)=    0.3651   E(BOTTOM)=    0.127   E(TOP)=    0.603  0  1   129
             APW+lo
:E0_0004: E( 0)=    0.4036
             APW+lo

          ATOMIC SPHERE DEPENDENT PARAMETERS FOR ATOM  Tb1       
:e__0005: OVERALL ENERGY PARAMETER IS    0.4036
          OVERALL BASIS SET ON ATOM IS LAPW
:E0_0005: E( 0)=    0.4036
             APW+lo
:E0_0005: E( 0)=   -2.6567   E(BOTTOM)=   -2.852   E(TOP)=   -2.461  4  5   188
             LOCAL ORBITAL
:E1_0005: E( 1)=    0.8036
             APW+lo
:E1_0005: E( 1)=   -0.9398   E(BOTTOM)=   -1.373   E(TOP)=   -0.507  3  4   173
             LOCAL ORBITAL
:E3_0005: E( 3)=    0.4450   E(BOTTOM)=    0.382   E(TOP)=    0.508  0  1   108
             APW+lo
:E2_0005: E( 2)=    0.4037   E(BOTTOM)=    0.404   E(TOP)= -520.000  2 -1    77
             APW+lo

       K=  0.031250  0.031250  0.029412            1
:RKM  : MATRIX SIZE   653LOs:  80  RKM= 9.00  WEIGHT= 2.00  PGR:    
       EIGENVALUES ARE:
:EIG00001:      -3.8047113   -3.7989346   -3.7972515   -3.7945721   -3.7945378
:EIG00006:      -3.7942319   -3.7942128   -3.7843600   -3.7842854   -3.7830610
:EIG00011:      -3.7830237   -3.7790912   -3.7761575   -3.7760985   -3.7728688
:EIG00016:      -2.6216986   -0.9211231   -0.9210390   -0.8952908   -0.0065957
:EIG00021:       0.2035320    0.2831665    0.2862864    0.2866409    0.2896619
:EIG00026:       0.2908530    0.3077235    0.3082696    0.3201591    0.3236341
:EIG00031:       0.3550102    0.3556532    0.3913628    0.3920493    0.4162521
:EIG00036:       0.4281923    0.4284714    0.4455451    0.4531801    0.4550108
:EIG00041:       0.4550693    0.4563876    0.4568678    0.4572094    0.4574072
:EIG00046:       0.4605393    0.4610878    0.4657010    0.4658494    0.5176137

:EIG00051:       0.5204418    0.5292020    0.6190622    0.6773281    0.6795032
:EIG00056:       0.7043810    0.7718018    0.7976745    0.8135679    0.9894478
:EIG00061:       0.9923124    1.1828502    1.2539036    1.2580947    1.3383656
:EIG00066:       1.3676633    1.4100456    1.4172116    1.4559150    1.4830707
:EIG00071:       1.4973334    1.6307617    1.6452353    1.7391976    1.7409191
:EIG00076:       1.8933834    1.9047045    2.1036918    2.1104106    2.2543811
:EIG00081:       2.3054506    2.3202035    2.3252166    2.3669054    2.3802873
:EIG00086:       2.4030273    2.4432217    2.4670449    2.5120372    2.5127503
:EIG00091:       2.6746706    2.7773257    2.7859580    2.8472715    2.9114576
:EIG00096:       2.9492763    2.9643268    2.9695685    2.9849248    3.0082971

:EIG00101:       3.0298732    3.0497513    3.1404981    3.1538082    3.2219634
:EIG00106:       3.2495631    3.2686678    3.2790708    3.3618602    3.3646070
:EIG00111:       3.4302375    3.4905942    3.5082591    3.5695757    3.5755958
:EIG00116:       3.6094807    3.6623475    3.7201818    3.7396904    3.7847233
:EIG00121:       3.7889238    3.8404427    3.9981136    4.0347439    4.0628591
:EIG00126:       4.0643588    4.1148253    4.1624799    4.2098904    4.2578405
:EIG00131:       4.3306960    4.3366846    4.3912486    4.4156276    4.4238533
:EIG00136:       4.4449303    4.4531117    4.4654718    4.5825580    4.5878531
:EIG00141:       4.6011767    4.6118648    4.6566356    4.6814503    4.7283548
:EIG00146:       4.7361963    4.7817014    4.7999888    4.8143180    4.8240028

:EIG00151:       4.8375724    4.8910213    4.9012524    4.9513385    4.9640683
:EIG00156:       5.0058939    5.0380974    5.0492173    5.1005727    5.1626928
:EIG00161:       5.1707116    5.1952259    5.2273841    5.2971717    5.3411312
:EIG00166:       5.3508901    5.3961403    5.4607561    5.4666620    5.4716406
       ********************************************************

:KPT   :      NUMBER OF K-POINTS:    2176
:LMAX-WF:   10   Non-Spherical LMAX:   6

          ATOMIC SPHERE DEPENDENT PARAMETERS FOR ATOM  Co1       
:e__0001: OVERALL ENERGY PARAMETER IS    0.4036
          OVERALL BASIS SET ON ATOM IS LAPW
:E1_0001: E( 1)=    0.4036
             APW+lo
:E1_0001: E( 1)=   -3.5558   E(BOTTOM)=   -3.594   E(TOP)=   -3.518  1  2   200
             LOCAL ORBITAL
:E2_0001: E( 2)=    0.5864   E(BOTTOM)=    0.322   E(TOP)=    0.851  0  1   134
             APW+lo
:E0_0001: E( 0)=    0.4036
             APW+lo

          ATOMIC SPHERE DEPENDENT PARAMETERS FOR ATOM  Co1       
:e__0002: OVERALL ENERGY PARAMETER IS    0.4036
          OVERALL BASIS SET ON ATOM IS LAPW
:E1_0002: E( 1)=    0.4036
             APW+lo
:E1_0002: E( 1)=   -3.5558   E(BOTTOM)=   -3.594   E(TOP)=   -3.518  1  2   203
             LOCAL ORBITAL
:E2_0002: E( 2)=    0.5864   E(BOTTOM)=    0.322   E(TOP)=    0.851  0  1   125
             APW+lo
:E0_0002: E( 0)=    0.4036
             APW+lo

          ATOMIC SPHERE DEPENDENT PARAMETERS FOR ATOM  Co1       
:e__0003: OVERALL ENERGY PARAMETER IS    0.4036
          OVERALL BASIS SET ON ATOM IS LAPW
:E1_0003: E( 1)=    0.4036
             APW+lo
:E1_0003: E( 1)=   -3.5558   E(BOTTOM)=   -3.594   E(TOP)=   -3.518  1  2   202
             LOCAL ORBITAL
:E2_0003: E( 2)=    0.5864   E(BOTTOM)=    0.322   E(TOP)=    0.851  0  1   134
             APW+lo
:E0_0003: E( 0)=    0.4036
             APW+lo

          ATOMIC SPHERE DEPENDENT PARAMETERS FOR ATOM  Co2       
:e__0004: OVERALL ENERGY PARAMETER IS    0.4036
          OVERALL BASIS SET ON ATOM IS LAPW
:E1_0004: E( 1)=    0.4036
             APW+lo
:E1_0004: E( 1)=   -3.5681   E(BOTTOM)=   -3.606   E(TOP)=   -3.530  1  2   198
             LOCAL ORBITAL
:E2_0004: E( 2)=    0.5739   E(BOTTOM)=    0.309   E(TOP)=    0.839  0  1   130
             APW+lo
:E0_0004: E( 0)=    0.4036
             APW+lo

          ATOMIC SPHERE DEPENDENT PARAMETERS FOR ATOM  Tb1       
:e__0005: OVERALL ENERGY PARAMETER IS    0.4036
          OVERALL BASIS SET ON ATOM IS LAPW
:E0_0005: E( 0)=    0.4036
             APW+lo
:E0_0005: E( 0)=   -2.4476   E(BOTTOM)=   -2.660   E(TOP)=   -2.235  4  5   206
             LOCAL ORBITAL
:E1_0005: E( 1)=    0.8036
             APW+lo
:E1_0005: E( 1)=   -0.7712   E(BOTTOM)=   -1.230   E(TOP)=   -0.312  3  4   194
             LOCAL ORBITAL
:E3_0005: E( 3)=    0.7862   E(BOTTOM)=    0.704   E(TOP)=    0.868  0  1   137
             APW+lo
:E2_0005: E( 2)=    0.5058   E(BOTTOM)=    0.506   E(TOP)= -520.000  2 -1    82
             APW+lo

       K=  0.031250  0.031250  0.029412            1
:RKM  : MATRIX SIZE   653LOs:  80  RKM= 9.00  WEIGHT= 2.00  PGR:    
       EIGENVALUES ARE:
:EIG00001:      -3.5707802   -3.5648325   -3.5625891   -3.5595028   -3.5594686
:EIG00006:      -3.5592109   -3.5591874   -3.5491711   -3.5490923   -3.5479037
:EIG00011:      -3.5478579   -3.5432271   -3.5405390   -3.5404709   -3.5371117
:EIG00016:      -2.4107793   -0.7609293   -0.7608103   -0.7315894    0.0582903
:EIG00021:       0.3530492    0.4083305    0.4167498    0.4497513    0.4612914
:EIG00026:       0.4614615    0.4660941    0.4696897    0.4927994    0.4931862
:EIG00031:       0.5428519    0.5435008    0.5783362    0.5796404    0.6243015
:EIG00036:       0.6349102    0.6352941    0.6578063    0.6578619    0.6699918
:EIG00041:       0.6794193    0.6796408    0.7054432    0.7318738    0.7459996
:EIG00046:       0.7535941    0.7555721    0.7829504    0.7861765    0.7958270

:EIG00051:       0.8027402    0.8028560    0.8203031    0.8272949    0.8362312
:EIG00056:       0.8640062    0.8805927    0.8959539    0.9300092    1.0986114
:EIG00061:       1.1013391    1.3036621    1.3642196    1.3695351    1.4391463
:EIG00066:       1.4616259    1.5041630    1.5061678    1.5329255    1.5860727
:EIG00071:       1.5920303    1.7123924    1.7317504    1.8005142    1.8085652
:EIG00076:       1.9693049    1.9802555    2.1942766    2.1999547    2.3241863
:EIG00081:       2.3507240    2.3649528    2.3800143    2.4280056    2.4457297
:EIG00086:       2.4676828    2.5096022    2.5349658    2.5807289    2.5813413
:EIG00091:       2.7185820    2.8327800    2.8434478    2.8876269    2.9795069
:EIG00096:       3.0149318    3.0473779    3.0572331    3.0653257    3.0690244

:EIG00101:       3.1018934    3.1100671    3.1840382    3.1979946    3.2874301
:EIG00106:       3.3110964    3.3141306    3.3323473    3.4284020    3.4312354
:EIG00111:       3.4918407    3.5488201    3.5757830    3.6294673    3.6331611
:EIG00116:       3.6656555    3.7227830    3.7789199    3.8046612    3.8510072
:EIG00121:       3.8518465    3.9132325    4.0565222    4.1054912    4.1312691
:EIG00126:       4.1331772    4.1668499    4.2197402    4.2762580    4.3386183
:EIG00131:       4.3913215    4.3978672    4.4495869    4.4759797    4.4813715
:EIG00136:       4.5092524    4.5272754    4.5313642    4.6480078    4.6510682
:EIG00141:       4.6585204    4.6704442    4.7157830    4.7419119    4.7758084
:EIG00146:       4.7833382    4.8300313    4.8525549    4.8607830    4.8754155

:EIG00151:       4.8865477    4.9447187    4.9585292    5.0111306    5.0238361
:EIG00156:       5.0693103    5.0892289    5.1014627    5.1697775    5.2231547
:EIG00161:       5.2329169    5.2617282    5.2887609    5.3597582    5.4150274
:EIG00166:       5.4268031    5.4561088    5.5172077    5.5374232    5.5478401
       ********************************************************

:KPT   :      NUMBER OF K-POINTS:    2176
  Potential not averaged when calculating dV/dr
  75.0 -30.0 angle (M,z), angle (M,x) deg

        SPIN-ORBIT EIGENVALUES:
     K=  0.031250  0.031250  0.029412            1
      MATRIX SIZE=  340   WEIGHT= 2.00
     EIGENVALUES ARE:
          -3.8561500   -3.8543923   -3.8456830   -3.8406342   -3.8372700
          -3.8138309   -3.8128574   -3.8090118   -3.7989145   -3.7959025
          -3.7527095   -3.7516707   -3.7421996   -3.7364416   -3.7336948
          -3.5887122   -3.5865630   -3.5781302   -3.5731934   -3.5687912
          -3.5465556   -3.5454414   -3.5430754   -3.5312655   -3.5280461
          -3.5176658   -3.5171408   -3.5075038   -3.5012115   -3.4984450
          -2.6216986   -2.4107793   -1.0807643   -1.0328666   -0.8101635
          -0.7419331   -0.7007412   -0.6521029   -0.0065856    0.0583027

           0.2034571    0.2829059    0.2861026    0.2864819    0.2895524
           0.2909542    0.3074327    0.3082715    0.3200432    0.3233669
           0.3529171    0.3545107    0.3557129    0.3911043    0.3922069
           0.4081634    0.4151386    0.4165221    0.4274445    0.4288233
           0.4313357    0.4369754    0.4428631    0.4489534    0.4521701
           0.4537823    0.4552878    0.4561791    0.4603178    0.4611012
           0.4615165    0.4651958    0.4660160    0.4664423    0.4700016
           0.4742510    0.4836483    0.4929478    0.4937892    0.5178875

           0.5205230    0.5297314    0.5424409    0.5437691    0.5782276
           0.5797769    0.6189711    0.6233498    0.6348715    0.6362322
           0.6568155    0.6591877    0.6693290    0.6765363    0.6796231
           0.6801950    0.6808805    0.7043608    0.7053571    0.7320535
           0.7456803    0.7531788    0.7555061    0.7718994    0.7751224
           0.7815589    0.7939892    0.7984506    0.8056617    0.8133490
           0.8144798    0.8245969    0.8324702    0.8375574    0.8650225
           0.8821479    0.8971906    0.9299994    0.9888317    0.9924464

           1.0980901    1.1015518    1.1829059    1.2529132    1.2584622
           1.3036865    1.3382078    1.3634821    1.3683597    1.3705271
           1.4100447    1.4168525    1.4392301    1.4546033    1.4617637
           1.4828890    1.4956248    1.5043148    1.5070461    1.5341237
           1.5859676    1.5920728    1.6309310    1.6454141    1.7123216
           1.7310927    1.7407107    1.7415782    1.8005837    1.8078434
           1.8944206
       ********************************************************
:GAP (global)   :    0.0    Ry =     0.0   eV (metal)
:GAP (this spin):    0.0    Ry =     0.0   eV (metal)
         Bandranges (emin - emax) and occupancy:
:BAN00087:  87    0.539426    0.623061  1.00000000
:BAN00088:  88    0.540865    0.631926  1.00000000
:BAN00089:  89    0.563933    0.639572  1.00000000
:BAN00090:  90    0.575903    0.647369  1.00000000
:BAN00091:  91    0.578217    0.657147  0.99348872
:BAN00092:  92    0.585434    0.659405  0.97171208
:BAN00093:  93    0.614329    0.669479  0.93084264
:BAN00094:  94    0.619519    0.677208  0.79563125
:BAN00095:  95    0.625950    0.679623  0.27665878
:BAN00096:  96    0.644586    0.680357  0.03145861
:BAN00097:  97    0.652044    0.686093  0.00020810
:BAN00098:  98    0.664607    0.704361  0.00000000
:BAN00099:  99    0.670394    0.727134  0.00000000
:BAN00100: 100    0.678856    0.733806  0.00000000
:BAN00101: 101    0.685556    0.747411  0.00000000
:BAN00102: 102    0.696138    0.771311  0.00000000
        Energy to separate low and high energystates:   -0.05796


:NOE  : NUMBER OF ELECTRONS          =   94.000

:FER  : F E R M I - ENERGY(TETRAH.M.)=   0.6543520711
:GMA  : POTENTIAL AND CHARGE CUT-OFF  16.00 Ry**.5
 
:POS001: ATOM   -1 X,Y,Z = 0.50000 0.00000 0.50000  MULT= 1  ZZ= 27.000  Co1
 
       LMMAX 16
       LM=   0 0  2 0  2 2 -2 2  4 0  4 2 -4 2  4 4 -4 4  6 0  6 2 -6 2  6 4 -6 4  6 6 -6 6
 
:CHA001: TOTAL VALENCE CHARGE INSIDE SPHERE   1 =   7.9798    (RMT=  2.3000 )
:PCS001: PARTIAL CHARGES SPHERE =  1 S,P,D,F,PX,PY,PZ,D-Z2,D-X2Y2,D-XY,D-XZ,D-YZ
:QTL001: 0.2407 3.2115 4.5097 0.0131 1.0559 1.0807 1.0754 0.8956 0.8980 0.9068 0.9089 0.9006
        Q-s-low E-s-low   Q-p-low E-p-low   Q-d-low E-d-low   Q-f-low E-f-low
:EPL001:  0.0000 10.0000    2.9952 -3.7825    0.0000 10.0000    0.0000 10.0000
        Q-s-hi  E-s-hi    Q-p-hi  E-p-hi    Q-d-hi  E-d-hi    Q-f-hi  E-f-hi
:EPH001:  0.2401  0.2530    0.2161  0.3980    4.5090  0.3990    0.0130  0.3928
 
                      QXX         QXY         QYY         QZZ       UP TO R
:VZZ001:             1.67922    -2.50437    -1.21612    -0.46311       2.300
 
:POS002: ATOM   -2 X,Y,Z = 0.00000 0.50000 0.50000  MULT= 1  ZZ= 27.000  Co1
 
       LMMAX 16
       LM=   0 0  2 0  2 2 -2 2  4 0  4 2 -4 2  4 4 -4 4  6 0  6 2 -6 2  6 4 -6 4  6 6 -6 6
 
:CHA002: TOTAL VALENCE CHARGE INSIDE SPHERE   2 =   7.9799    (RMT=  2.3000 )
:PCS002: PARTIAL CHARGES SPHERE =  2 S,P,D,F,PX,PY,PZ,D-Z2,D-X2Y2,D-XY,D-XZ,D-YZ
:QTL002: 0.2407 3.2116 4.5099 0.0133 1.0929 1.0436 1.0750 0.8953 0.9109 0.8940 0.8964 0.9127
        Q-s-low E-s-low   Q-p-low E-p-low   Q-d-low E-d-low   Q-f-low E-f-low
:EPL002:  0.0000 10.0000    2.9952 -3.7825    0.0000 10.0000    0.0000 10.0000
        Q-s-hi  E-s-hi    Q-p-hi  E-p-hi    Q-d-hi  E-d-hi    Q-f-hi  E-f-hi
:EPH002:  0.2398  0.2530    0.2162  0.3980    4.5091  0.3990    0.0132  0.3932
 
                      QXX         QXY         QYY         QZZ       UP TO R
:VZZ002:            -2.64996    -0.00095     3.11899    -0.46902       2.300
 
:POS003: ATOM   -3 X,Y,Z = 0.50000 0.50000 0.50000  MULT= 1  ZZ= 27.000  Co1
 
       LMMAX 16
       LM=   0 0  2 0  2 2 -2 2  4 0  4 2 -4 2  4 4 -4 4  6 0  6 2 -6 2  6 4 -6 4  6 6 -6 6
 
:CHA003: TOTAL VALENCE CHARGE INSIDE SPHERE   3 =   7.9798    (RMT=  2.3000 )
:PCS003: PARTIAL CHARGES SPHERE =  3 S,P,D,F,PX,PY,PZ,D-Z2,D-X2Y2,D-XY,D-XZ,D-YZ
:QTL003: 0.2406 3.2115 4.5099 0.0131 1.0560 1.0805 1.0749 0.8952 0.8981 0.9067 0.9086 0.9006
        Q-s-low E-s-low   Q-p-low E-p-low   Q-d-low E-d-low   Q-f-low E-f-low
:EPL003:  0.0000 10.0000    2.9952 -3.7825    0.0000 10.0000    0.0000 10.0000
        Q-s-hi  E-s-hi    Q-p-hi  E-p-hi    Q-d-hi  E-d-hi    Q-f-hi  E-f-hi
:EPH003:  0.2399  0.2529    0.2162  0.3980    4.5090  0.3990    0.0130  0.3928
 
                      QXX         QXY         QYY         QZZ       UP TO R
:VZZ003:             1.67144     2.50207    -1.22195    -0.44948       2.300
 
:POS004: ATOM   -4 X,Y,Z = 0.33333 0.66667 0.00000  MULT= 2  ZZ= 27.000  Co2
 
       LMMAX 28
       LM=   0 0  1 1 -1 1  2 0  2 2 -2 2  3 1 -3 1  3 3 -3 3  4 0  4 2 -4 2  4 4 -4 4  5 1 -5 1
         5 3 -5 3  5 5 -5 5  6 0  6 2 -6 2  6 4 -6 4  6 6 -6 6
 
:CHA004: TOTAL VALENCE CHARGE INSIDE SPHERE   4 =   7.9958    (RMT=  2.3000 )
:PCS004: PARTIAL CHARGES SPHERE =  4 S,P,D,F,PX,PY,PZ,D-Z2,D-X2Y2,D-XY,D-XZ,D-YZ
:QTL004: 0.2509 3.2122 4.5162 0.0128 1.0610 1.0610 1.0906 0.9107 0.9093 0.9093 0.8932 0.8930
        Q-s-low E-s-low   Q-p-low E-p-low   Q-d-low E-d-low   Q-f-low E-f-low
:EPL004:  0.0024 -1.0059    2.9958 -3.7935    0.0024 -1.2368    0.0000 10.0000
        Q-s-hi  E-s-hi    Q-p-hi  E-p-hi    Q-d-hi  E-d-hi    Q-f-hi  E-f-hi
:EPH004:  0.2490  0.2726    0.2156  0.4082    4.5143  0.3866    0.0126  0.4024
 
                      QXX         QXY         QYY         QZZ       UP TO R
:VZZ004:             1.10059    -0.00576     1.10347    -2.20408       2.300
 
:POS005: ATOM   -5 X,Y,Z = 0.00000 0.00000 0.00000  MULT= 1  ZZ= 65.000  Tb1
 
       LMMAX 16
       LM=   0 0  2 0  2 2 -2 2  4 0  4 2 -4 2  4 4 -4 4  6 0  6 2 -6 2  6 4 -6 4  6 6 -6 6
 
:CHA005: TOTAL VALENCE CHARGE INSIDE SPHERE   5 =  11.0198    (RMT=  2.5000 )
:PCS005: PARTIAL CHARGES SPHERE =  5 S,P,D,F,PX,PY,PZ,D-Z2,D-X2Y2,D-XY,D-XZ,D-YZ
:QTL005: 1.0473 2.8711 0.2296 6.8693 0.9591 0.9592 0.9521 0.0311 0.0631 0.0632 0.0359 0.0363
        Q-s-low E-s-low   Q-p-low E-p-low   Q-d-low E-d-low   Q-f-low E-f-low
:EPL005:  0.9856 -2.6215    2.7799 -0.9221    0.0000 10.0000    0.0000 10.0000
        Q-s-hi  E-s-hi    Q-p-hi  E-p-hi    Q-d-hi  E-d-hi    Q-f-hi  E-f-hi
:EPH005:  0.0623  0.3411    0.0915  0.3761    0.2296  0.4322    6.8692  0.4553
 
                      QXX         QXY         QYY         QZZ       UP TO R
:VZZ005:            -2.51731    -0.34908    -3.00001     5.51729       2.500
 
:CHA  : TOTAL VALENCE CHARGE INSIDE UNIT CELL =      54.491424
 
:SUM  : SUM OF EIGENVALUES =         -48.080799387
 
:GAP (global)   :    0.0    Ry =     0.0   eV (metal)
:GAP (this spin):    0.0    Ry =     0.0   eV (metal)
         Bandranges (emin - emax) and occupancy:
:BAN00087:  87    0.539426    0.623061  1.00000000
:BAN00088:  88    0.540865    0.631926  1.00000000
:BAN00089:  89    0.563933    0.639572  1.00000000
:BAN00090:  90    0.575903    0.647369  1.00000000
:BAN00091:  91    0.578217    0.657147  0.99348872
:BAN00092:  92    0.585434    0.659405  0.97171208
:BAN00093:  93    0.614329    0.669479  0.93084264
:BAN00094:  94    0.619519    0.677208  0.79563125
:BAN00095:  95    0.625950    0.679623  0.27665878
:BAN00096:  96    0.644586    0.680357  0.03145861
:BAN00097:  97    0.652044    0.686093  0.00020810
:BAN00098:  98    0.664607    0.704361  0.00000000
:BAN00099:  99    0.670394    0.727134  0.00000000
:BAN00100: 100    0.678856    0.733806  0.00000000
:BAN00101: 101    0.685556    0.747411  0.00000000
:BAN00102: 102    0.696138    0.771311  0.00000000
        Energy to separate low and high energystates:   -0.05796


:NOE  : NUMBER OF ELECTRONS          =   94.000

:FER  : F E R M I - ENERGY(TETRAH.M.)=   0.6543520711
:GMA  : POTENTIAL AND CHARGE CUT-OFF  16.00 Ry**.5
 
:POS001: ATOM   -1 X,Y,Z = 0.50000 0.00000 0.50000  MULT= 1  ZZ= 27.000  Co1
 
       LMMAX 16
       LM=   0 0  2 0  2 2 -2 2  4 0  4 2 -4 2  4 4 -4 4  6 0  6 2 -6 2  6 4 -6 4  6 6 -6 6
 
:CHA001: TOTAL VALENCE CHARGE INSIDE SPHERE   1 =   6.1788    (RMT=  2.3000 )
:PCS001: PARTIAL CHARGES SPHERE =  1 S,P,D,F,PX,PY,PZ,D-Z2,D-X2Y2,D-XY,D-XZ,D-YZ
:QTL001: 0.2404 3.2249 2.6967 0.0130 1.0611 1.0844 1.0794 0.5813 0.5508 0.5135 0.5078 0.5430
        Q-s-low E-s-low   Q-p-low E-p-low   Q-d-low E-d-low   Q-f-low E-f-low
:EPL001:  0.0000 10.0000    2.9952 -3.5472    0.0000 10.0000    0.0000 10.0000
        Q-s-hi  E-s-hi    Q-p-hi  E-p-hi    Q-d-hi  E-d-hi    Q-f-hi  E-f-hi
:EPH001:  0.2394  0.3153    0.2300  0.4738    2.6956  0.5342    0.0128  0.5327
 
                      QXX         QXY         QYY         QZZ       UP TO R
:VZZ001:             2.00695    -1.80477    -0.06809    -1.93889       2.300
 
:POS002: ATOM   -2 X,Y,Z = 0.00000 0.50000 0.50000  MULT= 1  ZZ= 27.000  Co1
 
       LMMAX 16
       LM=   0 0  2 0  2 2 -2 2  4 0  4 2 -4 2  4 4 -4 4  6 0  6 2 -6 2  6 4 -6 4  6 6 -6 6
 
:CHA002: TOTAL VALENCE CHARGE INSIDE SPHERE   2 =   6.1788    (RMT=  2.3000 )
:PCS002: PARTIAL CHARGES SPHERE =  2 S,P,D,F,PX,PY,PZ,D-Z2,D-X2Y2,D-XY,D-XZ,D-YZ
:QTL002: 0.2402 3.2252 2.6963 0.0130 1.0962 1.0496 1.0795 0.5815 0.4958 0.5688 0.5605 0.4897
        Q-s-low E-s-low   Q-p-low E-p-low   Q-d-low E-d-low   Q-f-low E-f-low
:EPL002:  0.0000 10.0000    2.9952 -3.5473    0.0000 10.0000    0.0000 10.0000
        Q-s-hi  E-s-hi    Q-p-hi  E-p-hi    Q-d-hi  E-d-hi    Q-f-hi  E-f-hi
:EPH002:  0.2394  0.3153    0.2303  0.4738    2.6952  0.5342    0.0128  0.5328
 
                      QXX         QXY         QYY         QZZ       UP TO R
:VZZ002:            -1.15340     0.03265     3.07193    -1.91851       2.300
 
:POS003: ATOM   -3 X,Y,Z = 0.50000 0.50000 0.50000  MULT= 1  ZZ= 27.000  Co1
 
       LMMAX 16
       LM=   0 0  2 0  2 2 -2 2  4 0  4 2 -4 2  4 4 -4 4  6 0  6 2 -6 2  6 4 -6 4  6 6 -6 6
 
:CHA003: TOTAL VALENCE CHARGE INSIDE SPHERE   3 =   6.1782    (RMT=  2.3000 )
:PCS003: PARTIAL CHARGES SPHERE =  3 S,P,D,F,PX,PY,PZ,D-Z2,D-X2Y2,D-XY,D-XZ,D-YZ
:QTL003: 0.2403 3.2253 2.6959 0.0130 1.0612 1.0846 1.0793 0.5816 0.5499 0.5140 0.5080 0.5425
        Q-s-low E-s-low   Q-p-low E-p-low   Q-d-low E-d-low   Q-f-low E-f-low
:EPL003:  0.0000 10.0000    2.9952 -3.5472    0.0000 10.0000    0.0000 10.0000
        Q-s-hi  E-s-hi    Q-p-hi  E-p-hi    Q-d-hi  E-d-hi    Q-f-hi  E-f-hi
:EPH003:  0.2394  0.3154    0.2303  0.4738    2.6953  0.5342    0.0128  0.5327
 
                      QXX         QXY         QYY         QZZ       UP TO R
:VZZ003:             1.98655     1.83770    -0.04937    -1.93716       2.300
 
:POS004: ATOM   -4 X,Y,Z = 0.33333 0.66667 0.00000  MULT= 2  ZZ= 27.000  Co2
 
       LMMAX 28
       LM=   0 0  1 1 -1 1  2 0  2 2 -2 2  3 1 -3 1  3 3 -3 3  4 0  4 2 -4 2  4 4 -4 4  5 1 -5 1
         5 3 -5 3  5 5 -5 5  6 0  6 2 -6 2  6 4 -6 4  6 6 -6 6
 
:CHA004: TOTAL VALENCE CHARGE INSIDE SPHERE   4 =   6.4255    (RMT=  2.3000 )
:PCS004: PARTIAL CHARGES SPHERE =  4 S,P,D,F,PX,PY,PZ,D-Z2,D-X2Y2,D-XY,D-XZ,D-YZ
:QTL004: 0.2334 3.2200 2.9565 0.0128 1.0606 1.0607 1.0984 0.5554 0.6175 0.6176 0.5828 0.5830
        Q-s-low E-s-low   Q-p-low E-p-low   Q-d-low E-d-low   Q-f-low E-f-low
:EPL004:  0.0026 -0.8566    2.9952 -3.5580    0.0032 -1.1103    0.0000 10.0000
        Q-s-hi  E-s-hi    Q-p-hi  E-p-hi    Q-d-hi  E-d-hi    Q-f-hi  E-f-hi
:EPH004:  0.2311  0.3124    0.2233  0.4755    2.9540  0.5340    0.0125  0.5455
 
                      QXX         QXY         QYY         QZZ       UP TO R
:VZZ004:             0.03179     0.01728     0.04313    -0.07495       2.300
 
:POS005: ATOM   -5 X,Y,Z = 0.00000 0.00000 0.00000  MULT= 1  ZZ= 65.000  Tb1
 
       LMMAX 16
       LM=   0 0  2 0  2 2 -2 2  4 0  4 2 -4 2  4 4 -4 4  6 0  6 2 -6 2  6 4 -6 4  6 6 -6 6
 
:CHA005: TOTAL VALENCE CHARGE INSIDE SPHERE   5 =   4.2706    (RMT=  2.5000 )
:PCS005: PARTIAL CHARGES SPHERE =  5 S,P,D,F,PX,PY,PZ,D-Z2,D-X2Y2,D-XY,D-XZ,D-YZ
:QTL005: 1.0423 2.8562 0.2559 0.1145 0.9534 0.9536 0.9493 0.0366 0.0625 0.0625 0.0475 0.0474
        Q-s-low E-s-low   Q-p-low E-p-low   Q-d-low E-d-low   Q-f-low E-f-low
:EPL005:  0.9824 -2.4105    2.7429 -0.7618    0.0000 10.0000    0.0000 10.0000
        Q-s-hi  E-s-hi    Q-p-hi  E-p-hi    Q-d-hi  E-d-hi    Q-f-hi  E-f-hi
:EPH005:  0.0594  0.3782    0.1131  0.4636    0.2559  0.5052    0.1143  0.5302
 
                      QXX         QXY         QYY         QZZ       UP TO R
:VZZ005:            -2.06277     0.24434    -1.77441     3.83721       2.500
 
:CHA  : TOTAL VALENCE CHARGE INSIDE UNIT CELL =      39.508574
 
:SUM  : SUM OF EIGENVALUES =         -47.664462744
 

        1.ATOM      Co1                   5 CORE STATES
:1S 001: 1S                -556.760653065 Ry
:2S 001: 2S                 -64.916990330 Ry
:2PP001: 2P*                -56.147181527 Ry
:2P 001: 2P                 -55.059049982 Ry
:3S 001: 3S                  -6.482182846 Ry

        2.ATOM      Co1                   5 CORE STATES
:1S 002: 1S                -556.760657576 Ry
:2S 002: 2S                 -64.916994881 Ry
:2PP002: 2P*                -56.147186069 Ry
:2P 002: 2P                 -55.059054525 Ry
[...]
:BAN00101: 101    0.636145    0.670692  0.00000000
        Energy to separate low and high energystates:   -0.01309


:NOE  : NUMBER OF ELECTRONS          =   94.000

:FER  : F E R M I - ENERGY(TETRAH.M.)=   0.6131365085
:GMA  : POTENTIAL AND CHARGE CUT-OFF  16.00 Ry**.5
 
:POS001: ATOM   -1 X,Y,Z = 0.50000 0.00000 0.50000  MULT= 1  ZZ= 27.000  Co1
 
       LMMAX 16
       LM=   0 0  2 0  2 2 -2 2  4 0  4 2 -4 2  4 4 -4 4  6 0  6 2 -6 2  6 4 -6 4  6 6 -6 6
 
:CHA001: TOTAL VALENCE CHARGE INSIDE SPHERE   1 =   6.2184    (RMT=  2.3000 )
:PCS001: PARTIAL CHARGES SPHERE =  1 S,P,D,F,PX,PY,PZ,D-Z2,D-X2Y2,D-XY,D-XZ,D-YZ
:QTL001: 0.2316 3.2104 2.7609 0.0118 1.0600 1.0772 1.0731 0.6030 0.5653 0.5344 0.5045 0.5540
        Q-s-low E-s-low   Q-p-low E-p-low   Q-d-low E-d-low   Q-f-low E-f-low
:EPL001:  0.0000 10.0000    2.9952 -3.6019    0.0000 10.0000    0.0000 10.0000
        Q-s-hi  E-s-hi    Q-p-hi  E-p-hi    Q-d-hi  E-d-hi    Q-f-hi  E-f-hi
:EPH001:  0.2308  0.2911    0.2156  0.4453    2.7601  0.4954    0.0115  0.5014
 
                      QXX         QXY         QYY         QZZ       UP TO R
:VZZ001:             1.37535    -1.09442     0.13147    -1.50687       2.300
 
:POS002: ATOM   -2 X,Y,Z = 0.00000 0.50000 0.50000  MULT= 1  ZZ= 27.000  Co1
 
       LMMAX 16
       LM=   0 0  2 0  2 2 -2 2  4 0  4 2 -4 2  4 4 -4 4  6 0  6 2 -6 2  6 4 -6 4  6 6 -6 6
 
:CHA002: TOTAL VALENCE CHARGE INSIDE SPHERE   2 =   6.2178    (RMT=  2.3000 )
:PCS002: PARTIAL CHARGES SPHERE =  2 S,P,D,F,PX,PY,PZ,D-Z2,D-X2Y2,D-XY,D-XZ,D-YZ
:QTL002: 0.2314 3.2101 2.7605 0.0116 1.0861 1.0516 1.0728 0.6032 0.5211 0.5768 0.5797 0.4797
        Q-s-low E-s-low   Q-p-low E-p-low   Q-d-low E-d-low   Q-f-low E-f-low
:EPL002:  0.0000 10.0000    2.9952 -3.6018    0.0000 10.0000    0.0000 10.0000
        Q-s-hi  E-s-hi    Q-p-hi  E-p-hi    Q-d-hi  E-d-hi    Q-f-hi  E-f-hi
:EPH002:  0.2311  0.2912    0.2153  0.4453    2.7599  0.4954    0.0114  0.5015
 
                      QXX         QXY         QYY         QZZ       UP TO R
:VZZ002:            -0.46370     0.00628     2.04545    -1.58178       2.300
 
:POS003: ATOM   -3 X,Y,Z = 0.50000 0.50000 0.50000  MULT= 1  ZZ= 27.000  Co1
 
       LMMAX 16
       LM=   0 0  2 0  2 2 -2 2  4 0  4 2 -4 2  4 4 -4 4  6 0  6 2 -6 2  6 4 -6 4  6 6 -6 6
 
:CHA003: TOTAL VALENCE CHARGE INSIDE SPHERE   3 =   6.2172    (RMT=  2.3000 )
:PCS003: PARTIAL CHARGES SPHERE =  3 S,P,D,F,PX,PY,PZ,D-Z2,D-X2Y2,D-XY,D-XZ,D-YZ
:QTL003: 0.2312 3.2106 2.7604 0.0117 1.0600 1.0774 1.0730 0.6030 0.5620 0.5358 0.5050 0.5543
        Q-s-low E-s-low   Q-p-low E-p-low   Q-d-low E-d-low   Q-f-low E-f-low
:EPL003:  0.0000 10.0000    2.9952 -3.6017    0.0000 10.0000    0.0000 10.0000
        Q-s-hi  E-s-hi    Q-p-hi  E-p-hi    Q-d-hi  E-d-hi    Q-f-hi  E-f-hi
:EPH003:  0.2307  0.2912    0.2155  0.4453    2.7596  0.4955    0.0115  0.5015
 
                      QXX         QXY         QYY         QZZ       UP TO R
:VZZ003:             1.39240     1.08849     0.16937    -1.56180       2.300
 
:POS004: ATOM   -4 X,Y,Z = 0.33333 0.66667 0.00000  MULT= 2  ZZ= 27.000  Co2
 
       LMMAX 28
       LM=   0 0  1 1 -1 1  2 0  2 2 -2 2  3 1 -3 1  3 3 -3 3  4 0  4 2 -4 2  4 4 -4 4  5 1 -5 1
         5 3 -5 3  5 5 -5 5  6 0  6 2 -6 2  6 4 -6 4  6 6 -6 6
 
:CHA004: TOTAL VALENCE CHARGE INSIDE SPHERE   4 =   6.2374    (RMT=  2.3000 )
:PCS004: PARTIAL CHARGES SPHERE =  4 S,P,D,F,PX,PY,PZ,D-Z2,D-X2Y2,D-XY,D-XZ,D-YZ
:QTL004: 0.2259 3.2057 2.7917 0.0124 1.0592 1.0595 1.0864 0.5407 0.5803 0.5742 0.5478 0.5482
        Q-s-low E-s-low   Q-p-low E-p-low   Q-d-low E-d-low   Q-f-low E-f-low
:EPL004:  0.0024 -1.0116    2.9952 -3.6006    0.0024 -1.2494    0.0000 10.0000
        Q-s-hi  E-s-hi    Q-p-hi  E-p-hi    Q-d-hi  E-d-hi    Q-f-hi  E-f-hi
:EPH004:  0.2239  0.2928    0.2093  0.4468    2.7898  0.4965    0.0107  0.5118
 
                      QXX         QXY         QYY         QZZ       UP TO R
:VZZ004:             0.17403     0.04919     0.22787    -0.40191       2.300
 
:POS005: ATOM   -5 X,Y,Z = 0.00000 0.00000 0.00000  MULT= 1  ZZ= 65.000  Tb1
 
       LMMAX 16
       LM=   0 0  2 0  2 2 -2 2  4 0  4 2 -4 2  4 4 -4 4  6 0  6 2 -6 2  6 4 -6 4  6 6 -6 6
 
:CHA005: TOTAL VALENCE CHARGE INSIDE SPHERE   5 =   5.4178    (RMT=  2.5000 )
:PCS005: PARTIAL CHARGES SPHERE =  5 S,P,D,F,PX,PY,PZ,D-Z2,D-X2Y2,D-XY,D-XZ,D-YZ
:QTL005: 1.0495 2.8727 0.3441 1.1498 0.9592 0.9598 0.9540 0.0549 0.0797 0.0793 0.0655 0.0651
        Q-s-low E-s-low   Q-p-low E-p-low   Q-d-low E-d-low   Q-f-low E-f-low
:EPL005:  0.9824 -2.5686    2.7642 -0.9115    0.0000 10.0000    0.0000 10.0000
        Q-s-hi  E-s-hi    Q-p-hi  E-p-hi    Q-d-hi  E-d-hi    Q-f-hi  E-f-hi
:EPH005:  0.0661  0.3318    0.1081  0.4316    0.3441  0.4665    1.1498  0.5788
 
                      QXX         QXY         QYY         QZZ       UP TO R
:VZZ005:            -3.49642    -2.05876    -5.89493     9.39141       2.500
 
:CHA  : TOTAL VALENCE CHARGE INSIDE UNIT CELL =      40.452226
 
:SUM  : SUM OF EIGENVALUES =         -49.182301174
 

        1.ATOM      Co1                   5 CORE STATES
:1S 001: 1S                -556.817027582 Ry
:2S 001: 2S                 -64.942551134 Ry
:2PP001: 2P*                -56.179866034 Ry
:2P 001: 2P                 -55.091057828 Ry
:3S 001: 3S                  -6.440816159 Ry

        2.ATOM      Co1                   5 CORE STATES
:1S 002: 1S                -556.816902671 Ry
:2S 002: 2S                 -64.942406371 Ry
:2PP002: 2P*                -56.179722620 Ry
:2P 002: 2P                 -55.090914312 Ry
:3S 002: 3S                  -6.440721021 Ry

        3.ATOM      Co1                   5 CORE STATES
:1S 003: 1S                -556.816807751 Ry
:2S 003: 2S                 -64.942312514 Ry
:2PP003: 2P*                -56.179630163 Ry
:2P 003: 2P                 -55.090821750 Ry
:3S 003: 3S                  -6.440624381 Ry

        4.ATOM      Co2                   5 CORE STATES
       CORE-FORCE in mRy/a.u. = |F|      Fx             Fy             Fz
:FCO004:   4.ATOM      8.596377662324      3.108429615459      8.014697389112      0.000000000000

:1S 004: 1S                -556.814936265 Ry
:2S 004: 2S                 -64.937695066 Ry
:2PP004: 2P*                -56.175430050 Ry
:2P 004: 2P                 -55.086583888 Ry
:3S 004: 3S                  -6.436820219 Ry

        5.ATOM      Tb1                  14 CORE STATES
:1S 005: 1S               -3807.004606643 Ry
:2S 005: 2S                -630.215870577 Ry
:2PP005: 2P*               -598.801698618 Ry
:2P 005: 2P                -543.928913077 Ry
:3S 005: 3S                -139.408637068 Ry
:3PP005: 3P*               -125.754340174 Ry
:3P 005: 3P                -114.438690874 Ry
:3DD005: 3D*                -90.928692023 Ry
:3D 005: 3D                 -88.461071544 Ry
:4S 005: 4S                 -27.283972256 Ry
:4PP005: 4P*                -21.935859209 Ry
:4P 005: 4P                 -19.404564125 Ry
:4DD005: 4D*                -10.599193146 Ry
:4D 005: 4D                 -10.140085604 Ry

        1.ATOM      Co1                   5 CORE STATES
:1S 001: 1S                -556.817526833 Ry
:2S 001: 2S                 -64.875345614 Ry
:2PP001: 2P*                -56.130330240 Ry
:2P 001: 2P                 -55.039951994 Ry
:3S 001: 3S                  -6.299092884 Ry

        2.ATOM      Co1                   5 CORE STATES
:1S 002: 1S                -556.817400959 Ry
:2S 002: 2S                 -64.875195376 Ry
:2PP002: 2P*                -56.130182253 Ry
:2P 002: 2P                 -55.039803808 Ry
:3S 002: 3S                  -6.298985603 Ry

        3.ATOM      Co1                   5 CORE STATES
:1S 003: 1S                -556.817304478 Ry
:2S 003: 2S                 -64.875120674 Ry
:2PP003: 2P*                -56.130103295 Ry
:2P 003: 2P                 -55.039725229 Ry
:3S 003: 3S                  -6.298929055 Ry

        4.ATOM      Co2                   5 CORE STATES
       CORE-FORCE in mRy/a.u. = |F|      Fx             Fy             Fz
:FCO004:   4.ATOM      8.418258287717      3.016408530708      7.859284456908      0.000000000000

:1S 004: 1S                -556.815398539 Ry
:2S 004: 2S                 -64.872189321 Ry
:2PP004: 2P*                -56.127152696 Ry
:2P 004: 2P                 -55.036776477 Ry
:3S 004: 3S                  -6.298637167 Ry

        5.ATOM      Tb1                  14 CORE STATES
:1S 005: 1S               -3807.004726243 Ry
:2S 005: 2S                -630.212729112 Ry
:2PP005: 2P*               -598.800186256 Ry
:2P 005: 2P                -543.926433105 Ry
:3S 005: 3S                -139.240919564 Ry
:3PP005: 3P*               -125.603370500 Ry
:3P 005: 3P                -114.264590531 Ry
:3DD005: 3D*                -90.804506187 Ry
:3D 005: 3D                 -88.330991743 Ry
:4S 005: 4S                 -26.903397188 Ry
:4PP005: 4P*                -21.555832399 Ry
:4P 005: 4P                 -19.029006623 Ry
:4DD005: 4D*                -10.226037977 Ry
:4D 005: 4D                  -9.768690652 Ry
:CINT001 Core Integral Atom   1 Up    5.99961216 Dn   5.999581 Total  11.99919366
:CINT002 Core Integral Atom   2 Up    5.99961214 Dn   5.999581 Total  11.99919361
:CINT003 Core Integral Atom   3 Up    5.99961213 Dn   5.999581 Total  11.99919361
:CINT004 Core Integral Atom   4 Up    5.99960948 Dn   5.999580 Total  11.99918914
:CINT005 Core Integral Atom   5 Up   22.99997711 Dn  22.999973 Total  45.99994992

       DENSITY AT NUCLEUS
        JATOM        VALENCE       SEMI-CORE          CORE           TOTAL
:RTO001:   1        8.141989        0.000000    17496.965028    17505.107017
:RTO002:   2        8.142306        0.000000    17496.963917    17505.106223
:RTO003:   3        8.143086        0.000000    17496.963697    17505.106783
:RTO004:   4        8.090698        0.000000    17496.911929    17505.002626
:RTO005:   5     1239.138696        0.000000  1219630.186093  1220869.324789

       HYPERFINE FIELDS FOR THOMSON RADIUS
:HFF001:           -9.607           0.000        -202.101        -211.708 (KGAUSS)
:HFF002:           -9.259           0.000        -202.117        -211.376 (KGAUSS)
:HFF003:           -8.715           0.000        -202.053        -210.768 (KGAUSS)
:HFF004:           54.263           0.000        -196.797        -142.533 (KGAUSS)
:HFF005:         2518.448           0.000       -2493.296          25.152 (KGAUSS)
:K-LIST:Reduced k-vector list    19745    2293
     
       CHARGES OF NEW CHARGE DENSITY
:NTO   : INTERSTITIAL      UP =     3.422084 DN =     3.906178 TOT =     7.328261
:NPC   : INTERSTITIAL      UP =    10.534703 DN =    10.026671 TOT =    20.561374
:NTO001: CHARGE SPHERE   1 UP =   13.807290 DN =   12.217911 TOT =   26.025200
:NTO002: CHARGE SPHERE   2 UP =   13.807443 DN =   12.217424 TOT =   26.024867
:NTO003: CHARGE SPHERE   3 UP =   13.807195 DN =   12.216754 TOT =   26.023949
:NTO004: CHARGE SPHERE   4 UP =   13.796509 DN =   12.236994 TOT =   26.033504
:NTO005: CHARGE SPHERE   5 UP =   34.108778 DN =   28.417846 TOT =   62.526624

:NEC01: NUCLEAR AND ELECTRONIC CHARGE    200.00000000   199.99590876 Plane Wave
     
       CHARGES OF OLD CHARGE DENSITY
:OTO   : INTERSTITIAL      UP =     3.424703 DN =     3.908546 TOT =     7.333249
:OPC   : INTERSTITIAL      UP =    10.541409 DN =    10.031585 TOT =    20.572993
:OTO001: CHARGE SPHERE   1 UP =   13.806879 DN =   12.217557 TOT =   26.024436
:OTO002: CHARGE SPHERE   2 UP =   13.807041 DN =   12.217349 TOT =   26.024390
:OTO003: CHARGE SPHERE   3 UP =   13.806946 DN =   12.217519 TOT =   26.024465
:OTO004: CHARGE SPHERE   4 UP =   13.796119 DN =   12.237522 TOT =   26.033641
:OTO005: CHARGE SPHERE   5 UP =   34.108555 DN =   28.417622 TOT =   62.526178

:NEC02: NUCLEAR AND ELECTRONIC CHARGE    200.00000000   200.00000000
     
       CONVERGENCE TEST
:DTO001: DIFFERENCE SPHERE  1 UP =  0.0004864 DN =  0.0004516 TOT =  0.0009380
:DTO002: DIFFERENCE SPHERE  2 UP =  0.0004133 DN =  0.0001735 TOT =  0.0005868
:DTO003: DIFFERENCE SPHERE  3 UP =  0.0002825 DN =  0.0009800 TOT =  0.0012625
:DTO004: DIFFERENCE SPHERE  4 UP =  0.0003742 DN =  0.0007532 TOT =  0.0011274
:DTO005: DIFFERENCE SPHERE  5 UP =  0.0008844 DN =  0.0006409 TOT =  0.0015253

:DIS  :  CHARGE DISTANCE      (  0.0009800 for atom    3 spin 2)      0.0021892
 
******************************************************
* Multisecant Mixing Release 10.8.9                  *
* Standard Mode with step bound                      *
* Multisecant MSR1 Algorithm                         *
* Regularization       2.000E-04                     *
* Minimum Greed        1.000E-03                     *
* Max Number of Memory Steps    8                    *
******************************************************
 
:INFOC: Max vcoul   0.00002 for atom   2 average:   0.00001

:FULLRMS/Atom   0.0028625073
:PLANE:  PW /ATOM     1.08551 DISTAN   3.54E-04 %  3.26E-02
:CHARG:  CLM/ATOM   260.58405 DISTAN   1.95E-03 %  7.49E-04
:INFOF Fractnow,Tolerror,TolReject,qtot     0.687     1.667     3.000     0.002 F F F

Step History
        Dmix         Dmixt        Red     Pred      Step      Lambda    MagAbs    Beta
 16   3.1113E-02   7.7457E-03  8.83E-01  7.89E-01  3.24E-01  1.38E+00  6.54E-03  8.20E-01
 17   1.9701E-02   9.6597E-03  1.05E+00  1.02E+00  7.35E-01  1.21E+00  1.31E-02  1.00E+00
 18   3.9401E-02   3.9401E-02  1.02E+00  1.16E+00  1.47E+00  1.11E+00  2.76E-02  1.00E+00
 19   7.8803E-02   7.8803E-02  9.92E-01  1.00E+00  2.50E-01  1.00E+00  4.76E-03  1.00E+00
 20   3.9401E-02   2.1188E-02  7.34E-01  7.96E-01  2.50E-01  1.00E+00  4.72E-03  5.00E-01
 21   7.8803E-02   5.4160E-02  7.01E-01  7.39E-01  6.81E-01  1.00E+00  9.45E-03  9.64E-01
 22   1.5761E-01   1.5761E-01  1.38E+00  1.10E+00  1.15E+00  1.00E+00  1.12E-02  1.00E+00
 23   8.3763E-02   8.3763E-02  7.62E-01  5.69E-01  6.99E-01  1.15E+00  9.36E-03  9.59E-01
 24   6.5122E-02   6.5122E-02  1.00E+00  6.98E-01  5.10E-01  1.00E+00  5.20E-03  1.00E+00
:NOTE :  Number of Memory Steps    8 Skipping   15
:INFOSL ,t1/t2,syy/sys,sqrt(syy/sss)     0.005     0.006     0.834     5.186     6.573     0.789     5.186    14.436     0.359

:PREDicted Charge, CTotal, PW Trust   6.97E-04   1.69E-03   1.35E-03
:PREDicted DMix, Beta, BLim           2.45E-02   1.09E+00   1.63E-01

Eigenvalues, unscaled except for SY+YY with Slambda=   1.00000 Ylambda=   1.00000
   #     SY Real       SY Imag         SS            YY        SY+YY Real     SY+YY Imag
   1   2.80560E+00   0.00000E+00   5.92619E+00   2.42046E+00   5.15915E+00   0.00000E+00
   2   3.07736E-01   0.00000E+00   3.19983E-01   9.80797E-01   1.24118E+00   0.00000E+00
   3   1.06756E-01   0.00000E+00   5.96971E-02   8.47040E-01   9.12159E-01   0.00000E+00
   4   2.18899E-02   1.99555E-03   7.78071E-03   3.42255E-01   4.03845E-01   0.00000E+00
   5   2.18899E-02  -1.99555E-03   1.41898E-03   1.23305E-01   2.59210E-01   0.00000E+00
   6   8.22708E-03   0.00000E+00   5.46003E-04   1.25801E-02   2.29199E-02   0.00000E+00
   7   5.26739E-05   0.00000E+00   7.84498E-06   1.19757E-03   1.31668E-03   0.00000E+00
   8   1.63162E-05   0.00000E+00   2.16391E-06   1.87068E-04   2.20466E-04   0.00000E+00

:SING : Singular value  5.201E+00  Weight  1.000E+00  Projection  1.438E-04
:SING : Singular value  1.242E+00  Weight  1.000E+00  Projection  1.007E-03
:SING : Singular value  9.125E-01  Weight  1.000E+00  Projection -1.593E-03
:SING : Singular value  4.075E-01  Weight  1.000E+00  Projection  2.909E-04
:SING : Singular value  2.553E-01  Weight  1.000E+00  Projection  1.797E-03
:SING : Singular value  2.286E-02  Weight  9.979E-01  Projection -2.782E-03
:SING : Singular value  1.316E-03  Weight  6.156E-01  Projection  1.732E-02
:SING : Singular value  2.204E-04  Weight  4.297E-02  Projection  1.744E-03

:RANK :  ACTIVE   6.66/8  =  83.21 % ; YY RANK   6.59/8  =  82.43 %
:TRUST:  Step  5.1E-01 Charge  2.8E-03 (e) CTO  6.8E-03 (e) PW  8.0E-03 (e)
:DIRM :  MEMORY  8/8  RED  0.69 PRED  0.70 NEXT  1.01
:DIRP : |MSR1|= 1.422E-04 |PRATT|= 1.253E-03 ANGLE=  13.6 DEGREES
:DIRQ : |MSR1|= 1.265E-03 |PRATT|= 6.899E-03 ANGLE=  50.1 DEGREES
:DIRT : |MSR1|= 1.273E-03 |PRATT|= 7.012E-03 ANGLE=  49.7 DEGREES
:MIX  :  MSE1   REGULARIZATION:  1.04E-03 GREED: 0.05278  Newton 1.00  0.1815                
     
       CHARGES OF MIXED CHARGE DENSITY
:CTO   : INTERSTITIAL      UP =     3.424656 DN =     3.908469 TOT =     7.333125
:CPC   : INTERSTITIAL      UP =    10.541340 DN =    10.031653 TOT =    20.572993
:CTO001: CHARGE SPHERE   1 UP =   13.806903 DN =   12.217572 TOT =   26.024474
:CTO002: CHARGE SPHERE   2 UP =   13.807076 DN =   12.217326 TOT =   26.024402
:CTO003: CHARGE SPHERE   3 UP =   13.806974 DN =   12.217454 TOT =   26.024428
:CTO004: CHARGE SPHERE   4 UP =   13.796130 DN =   12.237539 TOT =   26.033669
:CTO005: CHARGE SPHERE   5 UP =   34.108583 DN =   28.417650 TOT =   62.526233

       SPIN MAGNETIC MOMENTS OF MIXED CHARGE DENSITY
:MMINT:  MAGNETIC MOMENT IN INTERSTITIAL  =   -0.48381
:MMI001: MAGNETIC MOMENT IN SPHERE   1    =    1.58933
:MMI002: MAGNETIC MOMENT IN SPHERE   2    =    1.58975
:MMI003: MAGNETIC MOMENT IN SPHERE   3    =    1.58952
:MMI004: MAGNETIC MOMENT IN SPHERE   4    =    1.55859
:MMI005: MAGNETIC MOMENT IN SPHERE   5    =    5.69093
:MMTOT:  SPIN MAGNETIC MOMENT IN CELL     =   13.09290

:NEC03: NUCLEAR AND ELECTRONIC CHARGE    200.00000000   200.00000000

PW CHANGE     H    K    L      Current       Change    Residue
:PUP001:      0    0    0  2.44829428E-02 -2.021E-07 -2.688E-06
:PUP002:     -1    0    0  2.71892064E-03  9.947E-08  1.571E-06
:PUP003:     -1    1    0  2.72168737E-03  1.410E-07  1.928E-06
:PUP004:      0   -1    0  2.72041063E-03  1.865E-08  5.648E-07
:PUP005:      0    0   -1  6.34997013E-03  3.399E-07  2.106E-06
:PUP006:     -1    0   -1  6.87490403E-03 -1.098E-07 -9.355E-07
:PUP007:     -1    0    1  6.87645296E-03 -8.978E-08 -7.380E-07
:PUP008:     -1    1   -1  6.87471379E-03 -1.228E-07 -1.014E-06
:PUP009:     -1    1    1  6.87617580E-03 -1.150E-07 -9.337E-07
:PUP010:      0   -1   -1  6.87561410E-03 -1.103E-07 -9.133E-07
:PUP011:      0   -1    1  6.87553606E-03 -1.111E-07 -9.322E-07
:PUP012:     -2    1    0  6.28015906E-03  8.133E-08  9.114E-07
  
:PDN001:      0    0    0  2.44375852E-02 -1.412E-08  8.707E-07
:PDN002:     -1    0    0  3.52273059E-03 -3.045E-07 -2.133E-06
:PDN003:     -1    1    0  3.52078268E-03 -3.598E-07 -2.854E-06
:PDN004:      0   -1    0  3.53328080E-03 -2.706E-07 -2.525E-06
:PDN005:      0    0   -1  6.66561137E-03 -1.475E-07 -1.907E-06
:PDN006:     -1    0   -1  6.81641652E-03 -8.028E-08 -6.457E-07
:PDN007:     -1    0    1  6.80071802E-03 -6.606E-08 -5.071E-07
:PDN008:     -1    1   -1  6.81586587E-03 -4.832E-08 -1.853E-08
:PDN009:     -1    1    1  6.80025048E-03 -3.786E-08  9.683E-08
:PDN010:      0   -1   -1  6.81457477E-03 -1.037E-07 -1.184E-06
:PDN011:      0   -1    1  6.81448002E-03 -1.047E-07 -1.182E-06
:PDN012:     -2    1    0  6.02836957E-03  1.426E-07  6.122E-07

:ENE  : ********** TOTAL ENERGY IN Ry =       -37373.11206015

:FOR001:   1.ATOM          0.000          0.000          0.000          0.000 partial forces
:FOR002:   2.ATOM          0.000          0.000          0.000          0.000 partial forces
:FOR003:   3.ATOM          0.000          0.000          0.000          0.000 partial forces
:FOR004:   4.ATOM          0.463          0.074         -0.457          0.000 partial forces
:FOR005:   5.ATOM          0.000          0.000          0.000          0.000 partial forces
       TOTAL FORCE WITH RESPECT TO THE GLOBAL COORDINATE SYSTEM:
:FGL001:   1.ATOM                 0.000000000     0.000000000     0.000000000 partial forces
:FGL002:   2.ATOM                 0.000000000     0.000000000     0.000000000 partial forces
:FGL003:   3.ATOM                 0.000000000     0.000000000     0.000000000 partial forces
:FGL004:   4.ATOM                 0.084876931    -0.414265730     0.000000000 partial forces
:FGL005:   5.ATOM                 0.000000000     0.000000000     0.000000000 partial forces
