
:LABEL1: Calculations in /pscratch/sd/z/zhang714/cmae_jobs/cmae-main/test_TbCo5/90_n30_regular/case
:LABEL2: on nid006324 at Tue Feb 24 01:26:45 AM PST 2026
:LABEL3: using WIEN2k_24.1 (Release 1/8/2024) in /global/homes/z/zhang714/github/wien2k/src

:LABEL4: using the command: runsp_lapw_fix_orb -so -orb -p -cc 0.001 -ec 0.00001 -i 100

 Euler-Maclaurian Coulomb
 Consistent 3/8+Simpson combinations at start/end
 New Mode for Coulomb Integral
 Extension of core to zero
 LDM version in phi
 Fifth-order quadrature in outwin
 Lebedev-Laikov Grid in lapw0


            ---------
:ITE051: 51. ITERATION
            ---------

:NATO :    5 INDEPENDENT AND    6 TOTAL ATOMS IN UNITCELL
       SUBSTANCE: blebleble                                s-o calc. M||  0.10

       LATTICE                      = H   
:LAT  : LATTICE CONSTANTS=  9.34658  9.34658  7.54001
:VOL  : UNIT CELL VOLUME =     570.43781
:POT  : POTENTIAL OPTION EX_PBE EC_PBE VX_PBE VC_PBE
       MODE OF CALCULATION IS       = RELA
       SPINPOLARIZED CALCULATION
:IFFT  : FFT-parameters:   96   96   80 Factor: 2.00


   CONVERGENCE PARAMETER FOR PSEUDOCHARGE: NCON=  9
   MAXIMAL VALUE OF RMT(JATOM)*ABSK(NKK) : RK  =39.99508


:VKCOUL :  VK-COUL convergence: 0.832E-10
 Lebedev grid of          350
 :rho_min:   2.0000000000000000E-008   1.0000000000000001E-009
:VCOUL001 ATOMNUMBER=  1 Co1     VCOUL-ZERO =  0.58160E+00
:EFG001:                        EFG         =     3.98036   *10**21  V / m**2
                               V20  TOT/SRF=    -0.81058     0.01105
                               V22  TOT/SRF=     1.76525    -0.05113
                               V22M TOT/SRF=    -3.03655     0.08883
                               V21  TOT/SRF=     0.00000     0.00000
                               V21M TOT/SRF=     0.00000     0.00000

              2.23324   -3.03655    0.00000        3.98036    0.00000    0.00000
             -3.03655   -1.29727    0.00000        0.00000   -3.04438    0.00000
              0.00000    0.00000   -0.93597        0.00000    0.00000   -0.93597

         MAIN DIRECTIONS OF THE EFG   1.0000  0.5754  0.0000
                                     -0.5754  1.0000  0.0000
                                      0.0000  0.0000  1.0000
:ANG001:  ANGLE WITH OLD X-AXIS =        29.9

:ETA001:                         ASYMM. ETA =     0.52970


:VCOUL002 ATOMNUMBER=  2 Co1     VCOUL-ZERO =  0.58157E+00
:EFG002:                        EFG         =     3.99627   *10**21  V / m**2
                               V20  TOT/SRF=    -0.86939     0.01095
                               V22  TOT/SRF=    -3.49430     0.10249
                               V22M TOT/SRF=     0.01398     0.00007
                               V21  TOT/SRF=     0.00000     0.00000
                               V21M TOT/SRF=     0.00000     0.00000

             -2.99235    0.01398    0.00000       -2.99238    0.00000    0.00000
              0.01398    3.99624    0.00000        0.00000    3.99627    0.00000
              0.00000    0.00000   -1.00389        0.00000    0.00000   -1.00389

         MAIN DIRECTIONS OF THE EFG   1.0000  0.0020  0.0000
                                     -0.0020  1.0000  0.0000
                                     -0.0000 -0.0000  1.0000
:ANG002:  ANGLE WITH OLD X-AXIS =         0.1

:ETA002:                         ASYMM. ETA =     0.49759


:VCOUL003 ATOMNUMBER=  3 Co1     VCOUL-ZERO =  0.58164E+00
:EFG003:                        EFG         =     4.00553   *10**21  V / m**2
                               V20  TOT/SRF=    -0.87381     0.01097
                               V22  TOT/SRF=     1.74865    -0.05121
                               V22M TOT/SRF=     3.03305    -0.08883
                               V21  TOT/SRF=     0.00000     0.00000
                               V21M TOT/SRF=     0.00000     0.00000

              2.25315    3.03305    0.00000        4.00553    0.00000    0.00000
              3.03305   -1.24416    0.00000        0.00000   -2.99653    0.00000
              0.00000    0.00000   -1.00899        0.00000    0.00000   -1.00899

         MAIN DIRECTIONS OF THE EFG   1.0000 -0.5778  0.0000
                                      0.5778  1.0000  0.0000
                                      0.0000  0.0000  1.0000
:ANG003:  ANGLE WITH OLD X-AXIS =        30.0

:ETA003:                         ASYMM. ETA =     0.49620


:VCOUL004 ATOMNUMBER=  4 Co2     VCOUL-ZERO =  0.57122E+00
:EFG004:                        EFG         =    -2.84346   *10**21  V / m**2
                               V20  TOT/SRF=    -2.46251     0.05381
                               V22  TOT/SRF=    -0.01460    -0.00005
                               V22M TOT/SRF=     0.03344     0.00018
                               V21  TOT/SRF=     0.00000     0.00000
                               V21M TOT/SRF=     0.00000     0.00000

              1.40713    0.03344    0.00000        1.38525    0.00000    0.00000
              0.03344    1.43633    0.00000        0.00000    1.45822    0.00000
              0.00000    0.00000   -2.84346        0.00000    0.00000   -2.84346

         MAIN DIRECTIONS OF THE EFG   1.0000  0.6546  0.0000
                                     -0.6546  1.0000  0.0000
                                     -0.0000 -0.0000  1.0000
:ANG004:  ANGLE WITH OLD X-AXIS =        33.2

:ETA004:                         ASYMM. ETA =     0.02566


:VCOUL005 ATOMNUMBER=  5 Tb1     VCOUL-ZERO =  0.36450E+00
:EFG005:                        EFG         =    13.60851   *10**21  V / m**2
                               V20  TOT/SRF=    11.78531     0.01343
                               V22  TOT/SRF=     0.89454     0.00104
                               V22M TOT/SRF=    -1.55371    -0.00187
                               V21  TOT/SRF=     0.00000     0.00000
                               V21M TOT/SRF=     0.00000     0.00000

             -5.90972   -1.55371    0.00000       -5.01143    0.00000    0.00000
             -1.55371   -7.69879    0.00000        0.00000   -8.59708    0.00000
              0.00000    0.00000   13.60851        0.00000    0.00000   13.60851

         MAIN DIRECTIONS OF THE EFG   1.0000  0.5782  0.0000
                                     -0.5782  1.0000  0.0000
                                      0.0000  0.0000  1.0000
:ANG005:  ANGLE WITH OLD X-AXIS =        30.0

:ETA005:                         ASYMM. ETA =     0.26349


     HELLMANN-FEYNMAN-FORCE IN mRy/a.u. = |F|  Fx       Fy             Fz
:FHF001:   1.ATOM      0.000000000000      0.000000000000      0.000000000000      0.000000000000

     HELLMANN-FEYNMAN-FORCE IN mRy/a.u. = |F|  Fx       Fy             Fz
:FHF002:   2.ATOM      0.000000000000      0.000000000000      0.000000000000      0.000000000000

     HELLMANN-FEYNMAN-FORCE IN mRy/a.u. = |F|  Fx       Fy             Fz
:FHF003:   3.ATOM      0.000000000000      0.000000000000      0.000000000000      0.000000000000

     HELLMANN-FEYNMAN-FORCE IN mRy/a.u. = |F|  Fx       Fy             Fz
:FHF004:   4.ATOM      9.155206745510     -2.836345543098     -8.704766195205      0.000000000000

     HELLMANN-FEYNMAN-FORCE IN mRy/a.u. = |F|  Fx       Fy             Fz
:FHF005:   5.ATOM      0.000000000000      0.000000000000      0.000000000000      0.000000000000

:FIT001: LUSE= 13 SIGMA OF V-XC FIT FOR ATOM  1  0.4913363E-03
:FIT001: LUSE= 13 SIGMA OF V-XC FIT FOR ATOM  1  0.1144842E-02
:FIT002: LUSE= 13 SIGMA OF V-XC FIT FOR ATOM  2  0.4873620E-03
:FIT002: LUSE= 13 SIGMA OF V-XC FIT FOR ATOM  2  0.1150143E-02
:FIT003: LUSE= 13 SIGMA OF V-XC FIT FOR ATOM  3  0.4865176E-03
:FIT003: LUSE= 13 SIGMA OF V-XC FIT FOR ATOM  3  0.1149396E-02
:FIT004: LUSE= 13 SIGMA OF V-XC FIT FOR ATOM  4  0.3405862E-03
:FIT004: LUSE= 13 SIGMA OF V-XC FIT FOR ATOM  4  0.1298610E-02
:FIT005: LUSE= 13 SIGMA OF V-XC FIT FOR ATOM  5  0.2774611E-03
:FIT005: LUSE= 13 SIGMA OF V-XC FIT FOR ATOM  5  0.9503882E-03
:DEN  : DENSITY INTEGRAL  =        -14927.16531254   (Ry)
       ELS_POTENTIAL_AT Z=0 and Z=0.5:  -0.85319  -0.36112
       ELS_POTENTIAL_AT Y=0 and Y=0.5:  -0.56941  -0.25132
:VZERO:v0,v0c,v0x  -1.71029  -0.85319  -0.85711 v5,v5c,v5x  -1.11630  -0.36112  -0.75518
:VZERY:v0,v0c,v0x  -1.37069  -0.56941  -0.80128 v5,v5c,v5x  -1.07435  -0.25132  -0.82303
:VZERX:v0,v0c,v0x  -1.36944  -0.56817  -0.80127 v5,v5c,v5x  -1.07433  -0.25127  -0.82306
 :INFO: VX.gt.+1.0   1.3588259459718435       rho   9.1888770802012396E-003
:LMAX-WF:   10   Non-Spherical LMAX:   6

          ATOMIC SPHERE DEPENDENT PARAMETERS FOR ATOM  Co1       
:e__0001: OVERALL ENERGY PARAMETER IS    0.4133
          OVERALL BASIS SET ON ATOM IS LAPW
:E1_0001: E( 1)=    0.4133
             APW+lo
:E1_0001: E( 1)=   -3.7476   E(BOTTOM)=   -3.783   E(TOP)=   -3.713  1  2   184
             LOCAL ORBITAL
:E2_0001: E( 2)=    0.4242   E(BOTTOM)=    0.188   E(TOP)=    0.660  0  1   121
             APW+lo
:E0_0001: E( 0)=    0.4133
             APW+lo

          ATOMIC SPHERE DEPENDENT PARAMETERS FOR ATOM  Co1       
:e__0002: OVERALL ENERGY PARAMETER IS    0.4133
          OVERALL BASIS SET ON ATOM IS LAPW
:E1_0002: E( 1)=    0.4133
             APW+lo
:E1_0002: E( 1)=   -3.7476   E(BOTTOM)=   -3.782   E(TOP)=   -3.713  1  2   182
             LOCAL ORBITAL
:E2_0002: E( 2)=    0.4242   E(BOTTOM)=    0.188   E(TOP)=    0.660  0  1   130
             APW+lo
:E0_0002: E( 0)=    0.4133
             APW+lo

          ATOMIC SPHERE DEPENDENT PARAMETERS FOR ATOM  Co1       
:e__0003: OVERALL ENERGY PARAMETER IS    0.4133
          OVERALL BASIS SET ON ATOM IS LAPW
:E1_0003: E( 1)=    0.4133
             APW+lo
:E1_0003: E( 1)=   -3.7475   E(BOTTOM)=   -3.782   E(TOP)=   -3.713  1  2   184
             LOCAL ORBITAL
:E2_0003: E( 2)=    0.4242   E(BOTTOM)=    0.188   E(TOP)=    0.660  0  1   127
             APW+lo
:E0_0003: E( 0)=    0.4133
             APW+lo

          ATOMIC SPHERE DEPENDENT PARAMETERS FOR ATOM  Co2       
:e__0004: OVERALL ENERGY PARAMETER IS    0.4133
          OVERALL BASIS SET ON ATOM IS LAPW
:E1_0004: E( 1)=    0.4133
             APW+lo
:E1_0004: E( 1)=   -3.7442   E(BOTTOM)=   -3.779   E(TOP)=   -3.709  1  2   179
             LOCAL ORBITAL
:E2_0004: E( 2)=    0.4254   E(BOTTOM)=    0.188   E(TOP)=    0.663  0  1   124
             APW+lo
:E0_0004: E( 0)=    0.4133
             APW+lo

          ATOMIC SPHERE DEPENDENT PARAMETERS FOR ATOM  Tb1       
:e__0005: OVERALL ENERGY PARAMETER IS    0.4133
          OVERALL BASIS SET ON ATOM IS LAPW
:E0_0005: E( 0)=    0.4133
             APW+lo
:E0_0005: E( 0)=   -2.7842   E(BOTTOM)=   -2.974   E(TOP)=   -2.594  4  5   178
             LOCAL ORBITAL
:E1_0005: E( 1)=    0.8133
             APW+lo
:E1_0005: E( 1)=   -1.0573   E(BOTTOM)=   -1.480   E(TOP)=   -0.635  3  4   158
             LOCAL ORBITAL
:E3_0005: E( 3)=    0.3023   E(BOTTOM)=    0.242   E(TOP)=    0.362  0  0   112
             APW+lo
:E2_0005: E( 2)=    0.4133   E(BOTTOM)=    0.315   E(TOP)= -520.000  2 -1    84
             APW+lo

       K=  0.031250  0.031250  0.029412            1
:RKM  : MATRIX SIZE   653LOs:  80  RKM= 9.00  WEIGHT= 2.00  PGR:    
       EIGENVALUES ARE:
:EIG00001:      -3.7562681   -3.7533511   -3.7454600   -3.7453679   -3.7446869
:EIG00006:      -3.7372960   -3.7370789   -3.7357791   -3.7357452   -3.7337008
:EIG00011:      -3.7334852   -3.7326169   -3.7310797   -3.7309725   -3.7307804
:EIG00016:      -2.7495332   -1.0280273   -1.0256474   -1.0211264    0.0382853
:EIG00021:       0.2511025    0.2974634    0.3038396    0.3067022    0.3141758
:EIG00026:       0.3147380    0.3152410    0.3299716    0.3320283    0.3322352
:EIG00031:       0.3351925    0.3364825    0.3438103    0.3442981    0.3603270
:EIG00036:       0.3610107    0.3892381    0.4197277    0.4204007    0.4452225
:EIG00041:       0.4468309    0.4679132    0.4711235    0.4711772    0.4910924
:EIG00046:       0.4950027    0.4953588    0.5157872    0.5163610    0.5718903

:EIG00051:       0.5745448    0.5760902    0.6568401    0.6961675    0.7170289
:EIG00056:       0.7333731    0.7543587    0.8062241    0.8117278    0.9311506
:EIG00061:       0.9366654    1.1949050    1.2426710    1.2441494    1.3767421
:EIG00066:       1.4007302    1.4099276    1.4593925    1.4678825    1.4910409
:EIG00071:       1.5352481    1.6516811    1.6668459    1.7271204    1.7548447
:EIG00076:       1.9254617    1.9365816    2.0883528    2.0952439    2.2115343
:EIG00081:       2.3326226    2.3477561    2.3508732    2.3896259    2.4070981
:EIG00086:       2.4245415    2.4597064    2.4816566    2.5292847    2.5295563
:EIG00091:       2.6864817    2.7839862    2.7916192    2.8744953    2.9457569
:EIG00096:       2.9675627    2.9843960    2.9894822    2.9978030    3.0367705

:EIG00101:       3.0519381    3.0780935    3.1309476    3.1469034    3.2433818
:EIG00106:       3.2567159    3.2911171    3.3114710    3.3777456    3.3798443
:EIG00111:       3.4652282    3.5121090    3.5139377    3.5769531    3.5951723
:EIG00116:       3.6256537    3.6651532    3.7373347    3.7553845    3.7918069
:EIG00121:       3.7962042    3.8870275    4.0309402    4.0559777    4.0894927
:EIG00126:       4.0961378    4.1308627    4.1925698    4.2339112    4.2607446
:EIG00131:       4.3503140    4.3582786    4.4122302    4.4432725    4.4447564
:EIG00136:       4.4721947    4.4746779    4.5039152    4.6196355    4.6210619
:EIG00141:       4.6264172    4.6397455    4.6862918    4.7128163    4.7316047
:EIG00146:       4.7460733    4.8029859    4.8174372    4.8330027    4.8335803

:EIG00151:       4.8550021    4.9016538    4.9111270    4.9703761    4.9793774
:EIG00156:       5.0531738    5.0573871    5.0695939    5.1388292    5.1785049
:EIG00161:       5.1801546    5.2127227    5.2684831    5.2847945    5.3560000
:EIG00166:       5.3682388    5.4306215    5.4807259    5.4879422    5.4978829
       ********************************************************

:KPT   :      NUMBER OF K-POINTS:    2176
:LMAX-WF:   10   Non-Spherical LMAX:   6

          ATOMIC SPHERE DEPENDENT PARAMETERS FOR ATOM  Co1       
:e__0001: OVERALL ENERGY PARAMETER IS    0.4133
          OVERALL BASIS SET ON ATOM IS LAPW
:E1_0001: E( 1)=    0.4133
             APW+lo
:E1_0001: E( 1)=   -3.6099   E(BOTTOM)=   -3.647   E(TOP)=   -3.573  1  2   196
             LOCAL ORBITAL
:E2_0001: E( 2)=    0.5436   E(BOTTOM)=    0.289   E(TOP)=    0.798  0  1   127
             APW+lo
:E0_0001: E( 0)=    0.4133
             APW+lo

          ATOMIC SPHERE DEPENDENT PARAMETERS FOR ATOM  Co1       
:e__0002: OVERALL ENERGY PARAMETER IS    0.4133
          OVERALL BASIS SET ON ATOM IS LAPW
:E1_0002: E( 1)=    0.4133
             APW+lo
:E1_0002: E( 1)=   -3.6098   E(BOTTOM)=   -3.647   E(TOP)=   -3.573  1  2   193
             LOCAL ORBITAL
:E2_0002: E( 2)=    0.5437   E(BOTTOM)=    0.289   E(TOP)=    0.798  0  1   118
             APW+lo
:E0_0002: E( 0)=    0.4133
             APW+lo

          ATOMIC SPHERE DEPENDENT PARAMETERS FOR ATOM  Co1       
:e__0003: OVERALL ENERGY PARAMETER IS    0.4133
          OVERALL BASIS SET ON ATOM IS LAPW
:E1_0003: E( 1)=    0.4133
             APW+lo
:E1_0003: E( 1)=   -3.6098   E(BOTTOM)=   -3.647   E(TOP)=   -3.573  1  2   193
             LOCAL ORBITAL
:E2_0003: E( 2)=    0.5437   E(BOTTOM)=    0.289   E(TOP)=    0.798  0  1   126
             APW+lo
:E0_0003: E( 0)=    0.4133
             APW+lo

          ATOMIC SPHERE DEPENDENT PARAMETERS FOR ATOM  Co2       
:e__0004: OVERALL ENERGY PARAMETER IS    0.4133
          OVERALL BASIS SET ON ATOM IS LAPW
:E1_0004: E( 1)=    0.4133
             APW+lo
:E1_0004: E( 1)=   -3.6099   E(BOTTOM)=   -3.647   E(TOP)=   -3.573  1  2   194
             LOCAL ORBITAL
:E2_0004: E( 2)=    0.5422   E(BOTTOM)=    0.286   E(TOP)=    0.798  0  1   126
             APW+lo
:E0_0004: E( 0)=    0.4133
             APW+lo

          ATOMIC SPHERE DEPENDENT PARAMETERS FOR ATOM  Tb1       
:e__0005: OVERALL ENERGY PARAMETER IS    0.4133
          OVERALL BASIS SET ON ATOM IS LAPW
:E0_0005: E( 0)=    0.4133
             APW+lo
:E0_0005: E( 0)=   -2.6057   E(BOTTOM)=   -2.815   E(TOP)=   -2.396  4  5   195
             LOCAL ORBITAL
:E1_0005: E( 1)=    0.8133
             APW+lo
:E1_0005: E( 1)=   -0.9258   E(BOTTOM)=   -1.379   E(TOP)=   -0.473  3  4   176
             LOCAL ORBITAL
:E3_0005: E( 3)=    0.6262   E(BOTTOM)=    0.546   E(TOP)=    0.706  0  1   117
             APW+lo
:E2_0005: E( 2)=    0.4133   E(BOTTOM)=    0.368   E(TOP)= -520.000  2 -1    81
             APW+lo

       K=  0.031250  0.031250  0.029412            1
:RKM  : MATRIX SIZE   653LOs:  80  RKM= 9.00  WEIGHT= 2.00  PGR:    
       EIGENVALUES ARE:
:EIG00001:      -3.6169255   -3.6160324   -3.6066888   -3.6066334   -3.6061336
:EIG00006:      -3.6020112   -3.6018964   -3.6006449   -3.6005694   -3.5985762
:EIG00011:      -3.5985277   -3.5947986   -3.5947015   -3.5943518   -3.5936210
:EIG00016:      -2.5689419   -0.9048820   -0.9003607   -0.8996565    0.0428392
:EIG00021:       0.3323356    0.3805026    0.3859189    0.3993345    0.4254487
:EIG00026:       0.4255226    0.4282067    0.4545386    0.4549750    0.4560705
:EIG00031:       0.5119741    0.5125737    0.5403111    0.5415786    0.5871141
:EIG00036:       0.5932033    0.5935417    0.6109249    0.6143856    0.6152029
:EIG00041:       0.6173875    0.6246937    0.6265391    0.6293973    0.6303824
:EIG00046:       0.6325152    0.6481063    0.6511606    0.6656372    0.6949096

:EIG00051:       0.7008170    0.7032842    0.7454741    0.7462103    0.7792782
:EIG00056:       0.8033334    0.8075271    0.8365379    0.8493044    0.9863678
:EIG00061:       0.9906176    1.2478190    1.2969709    1.2989905    1.4070032
:EIG00066:       1.4279421    1.4452375    1.4797987    1.4936679    1.5210793
:EIG00071:       1.5682899    1.6712473    1.6904107    1.7391832    1.7581588
:EIG00076:       1.9398651    1.9507193    2.1251538    2.1307613    2.2262512
:EIG00081:       2.3194605    2.3352640    2.3458876    2.3957057    2.4079050
:EIG00086:       2.4311640    2.4672216    2.4919094    2.5374481    2.5393332
:EIG00091:       2.6732673    2.7805640    2.7906022    2.8547712    2.9540255
:EIG00096:       2.9774490    2.9840682    3.0210446    3.0230228    3.0253405

:EIG00101:       3.0671190    3.0772177    3.1206449    3.1361231    3.2392933
:EIG00106:       3.2507026    3.2843299    3.3107393    3.3883368    3.3910524
:EIG00111:       3.4689814    3.5155278    3.5241972    3.5771144    3.5940698
:EIG00116:       3.6277328    3.6666001    3.7355102    3.7584109    3.7993472
:EIG00121:       3.7996764    3.8951662    4.0346517    4.0698778    4.0980140
:EIG00126:       4.1022020    4.1250129    4.1936775    4.2435070    4.2835840
:EIG00131:       4.3488843    4.3579935    4.4107077    4.4392716    4.4469701
:EIG00136:       4.4846982    4.4890895    4.5069748    4.6084198    4.6218291
:EIG00141:       4.6297297    4.6357120    4.6833983    4.7140787    4.7205815
:EIG00146:       4.7316938    4.7947548    4.8121367    4.8212321    4.8252699

:EIG00151:       4.8438147    4.8936883    4.9077491    4.9726124    4.9814219
:EIG00156:       5.0534076    5.0567343    5.0661929    5.1474038    5.1812455
:EIG00161:       5.1820464    5.2155296    5.2718197    5.2894902    5.3697798
:EIG00166:       5.3831228    5.4254678    5.4848044    5.4941182    5.5023716
       ********************************************************

:KPT   :      NUMBER OF K-POINTS:    2176
  Potential not averaged when calculating dV/dr
  90.0 -30.0 angle (M,z), angle (M,x) deg

        SPIN-ORBIT EIGENVALUES:
     K=  0.031250  0.031250  0.029412            1
      MATRIX SIZE=  340   WEIGHT= 2.00
     EIGENVALUES ARE:
          -3.8093814   -3.8078560   -3.8040179   -3.8035438   -3.7970280
          -3.7796790   -3.7722625   -3.7690015   -3.7670598   -3.7641091
          -3.7001999   -3.6977121   -3.6944043   -3.6929590   -3.6870484
          -3.6196009   -3.6182847   -3.6160506   -3.6147579   -3.6075186
          -3.5902729   -3.5828576   -3.5815420   -3.5792436   -3.5751402
          -3.5633353   -3.5608908   -3.5591022   -3.5556765   -3.5499654
          -2.7495332   -2.5689419   -1.2039050   -1.1624814   -0.9221824
          -0.8733616   -0.8392870   -0.8058257    0.0382928    0.0428492

           0.2510093    0.2849954    0.2885604    0.2961305    0.3048842
           0.3253173    0.3279070    0.3312798    0.3317592    0.3323236
           0.3331567    0.3363842    0.3423073    0.3440705    0.3452719
           0.3601653    0.3608115    0.3804181    0.3857885    0.3888940
           0.3991733    0.4192868    0.4203901    0.4251724    0.4252853
           0.4281370    0.4453330    0.4469367    0.4540057    0.4544791
           0.4560921    0.4653016    0.4707580    0.4735384    0.4909771
           0.4951690    0.4957041    0.5120123    0.5126452    0.5159180

           0.5168529    0.5403838    0.5416032    0.5716903    0.5736770
           0.5770680    0.5855463    0.5933076    0.5951744    0.6092190
           0.6114949    0.6139665    0.6158187    0.6164441    0.6263982
           0.6294993    0.6328021    0.6380554    0.6506911    0.6574090
           0.6592910    0.6736733    0.6954382    0.6963531    0.7001246
           0.7042418    0.7171483    0.7335449    0.7462186    0.7466568
           0.7543662    0.7793600    0.8021045    0.8075622    0.8081778
           0.8120846    0.8375964    0.8498364    0.9307372    0.9361479

           0.9866018    0.9907991    1.1949346    1.2417147    1.2431740
           1.2478912    1.2980811    1.3000220    1.3767648    1.4005546
           1.4068059    1.4100682    1.4277770    1.4434790    1.4596951
           1.4680329    1.4750812    1.4916478    1.4972275    1.5217067
           1.5353481    1.5682668    1.6517166    1.6668395    1.6712813
           1.6903449    1.7285379    1.7402863    1.7549869    1.7583185

       ********************************************************
:GAP (global)   :    0.0    Ry =     0.0   eV (metal)
:GAP (this spin):    0.0    Ry =     0.0   eV (metal)
         Bandranges (emin - emax) and occupancy:
:BAN00086:  86    0.520467    0.577733  1.00000000
:BAN00087:  87    0.530032    0.587185  1.00000000
:BAN00088:  88    0.536909    0.602020  1.00000000
:BAN00089:  89    0.540647    0.603552  1.00000000
:BAN00090:  90    0.548628    0.609474  1.00000000
:BAN00091:  91    0.558971    0.611840  1.00000000
:BAN00092:  92    0.576474    0.614979  0.99371138
:BAN00093:  93    0.587505    0.615819  0.97521565
:BAN00094:  94    0.594879    0.617453  0.81710970
:BAN00095:  95    0.608097    0.626672  0.21321436
:BAN00096:  96    0.612820    0.631271  0.00074880
:BAN00097:  97    0.615008    0.636339  0.00000000
:BAN00098:  98    0.617069    0.640404  0.00000000
:BAN00099:  99    0.622970    0.651984  0.00000000
:BAN00100: 100    0.629101    0.659421  0.00000000
:BAN00101: 101    0.636131    0.670382  0.00000000
        Energy to separate low and high energystates:   -0.01312


:NOE  : NUMBER OF ELECTRONS          =   94.000

:FER  : F E R M I - ENERGY(TETRAH.M.)=   0.6132679756
:GMA  : POTENTIAL AND CHARGE CUT-OFF  16.00 Ry**.5
 
:POS001: ATOM   -1 X,Y,Z = 0.50000 0.00000 0.50000  MULT= 1  ZZ= 27.000  Co1
 
       LMMAX 16
       LM=   0 0  2 0  2 2 -2 2  4 0  4 2 -4 2  4 4 -4 4  6 0  6 2 -6 2  6 4 -6 4  6 6 -6 6
 
:CHA001: TOTAL VALENCE CHARGE INSIDE SPHERE   1 =   7.8085    (RMT=  2.3000 )
:PCS001: PARTIAL CHARGES SPHERE =  1 S,P,D,F,PX,PY,PZ,D-Z2,D-X2Y2,D-XY,D-XZ,D-YZ
:QTL001: 0.2271 3.1790 4.3856 0.0126 1.0499 1.0686 1.0605 0.8653 0.8780 0.8822 0.8882 0.8721
        Q-s-low E-s-low   Q-p-low E-p-low   Q-d-low E-d-low   Q-f-low E-f-low
:EPL001:  0.0000 10.0000    2.9952 -3.7401    0.0000 10.0000    0.0000 10.0000
        Q-s-hi  E-s-hi    Q-p-hi  E-p-hi    Q-d-hi  E-d-hi    Q-f-hi  E-f-hi
:EPH001:  0.2269  0.2769    0.1838  0.4041    4.3848  0.4393    0.0124  0.4334
 
                      QXX         QXY         QYY         QZZ       UP TO R
:VZZ001:             0.94788    -2.10490    -1.52474     0.57689       2.300
 
:POS002: ATOM   -2 X,Y,Z = 0.00000 0.50000 0.50000  MULT= 1  ZZ= 27.000  Co1
 
       LMMAX 16
       LM=   0 0  2 0  2 2 -2 2  4 0  4 2 -4 2  4 4 -4 4  6 0  6 2 -6 2  6 4 -6 4  6 6 -6 6
 
:CHA002: TOTAL VALENCE CHARGE INSIDE SPHERE   2 =   7.8087    (RMT=  2.3000 )
:PCS002: PARTIAL CHARGES SPHERE =  2 S,P,D,F,PX,PY,PZ,D-Z2,D-X2Y2,D-XY,D-XZ,D-YZ
:QTL002: 0.2274 3.1790 4.3860 0.0122 1.0778 1.0405 1.0607 0.8649 0.8850 0.8756 0.8636 0.8966
        Q-s-low E-s-low   Q-p-low E-p-low   Q-d-low E-d-low   Q-f-low E-f-low
:EPL002:  0.0000 10.0000    2.9952 -3.7400    0.0000 10.0000    0.0000 10.0000
        Q-s-hi  E-s-hi    Q-p-hi  E-p-hi    Q-d-hi  E-d-hi    Q-f-hi  E-f-hi
:EPH002:  0.2267  0.2771    0.1838  0.4041    4.3851  0.4393    0.0120  0.4336
 
                      QXX         QXY         QYY         QZZ       UP TO R
:VZZ002:            -2.73280     0.00902     2.13727     0.59551       2.300
 
:POS003: ATOM   -3 X,Y,Z = 0.50000 0.50000 0.50000  MULT= 1  ZZ= 27.000  Co1
 
       LMMAX 16
       LM=   0 0  2 0  2 2 -2 2  4 0  4 2 -4 2  4 4 -4 4  6 0  6 2 -6 2  6 4 -6 4  6 6 -6 6
 
:CHA003: TOTAL VALENCE CHARGE INSIDE SPHERE   3 =   7.8086    (RMT=  2.3000 )
:PCS003: PARTIAL CHARGES SPHERE =  3 S,P,D,F,PX,PY,PZ,D-Z2,D-X2Y2,D-XY,D-XZ,D-YZ
:QTL003: 0.2276 3.1790 4.3855 0.0126 1.0497 1.0687 1.0606 0.8656 0.8778 0.8825 0.8883 0.8719
        Q-s-low E-s-low   Q-p-low E-p-low   Q-d-low E-d-low   Q-f-low E-f-low
:EPL003:  0.0000 10.0000    2.9952 -3.7400    0.0000 10.0000    0.0000 10.0000
        Q-s-hi  E-s-hi    Q-p-hi  E-p-hi    Q-d-hi  E-d-hi    Q-f-hi  E-f-hi
:EPH003:  0.2272  0.2771    0.1838  0.4042    4.3848  0.4394    0.0124  0.4335
 
                      QXX         QXY         QYY         QZZ       UP TO R
:VZZ003:             0.94409     2.11626    -1.52017     0.57613       2.300
 
:POS004: ATOM   -4 X,Y,Z = 0.33333 0.66667 0.00000  MULT= 2  ZZ= 27.000  Co2
 
       LMMAX 28
       LM=   0 0  1 1 -1 1  2 0  2 2 -2 2  3 1 -3 1  3 3 -3 3  4 0  4 2 -4 2  4 4 -4 4  5 1 -5 1
         5 3 -5 3  5 5 -5 5  6 0  6 2 -6 2  6 4 -6 4  6 6 -6 6
 
:CHA004: TOTAL VALENCE CHARGE INSIDE SPHERE   4 =   7.7977    (RMT=  2.3000 )
:PCS004: PARTIAL CHARGES SPHERE =  4 S,P,D,F,PX,PY,PZ,D-Z2,D-X2Y2,D-XY,D-XZ,D-YZ
:QTL004: 0.2287 3.1709 4.3822 0.0120 1.0477 1.0477 1.0752 0.8781 0.8837 0.8842 0.8681 0.8679
        Q-s-low E-s-low   Q-p-low E-p-low   Q-d-low E-d-low   Q-f-low E-f-low
:EPL004:  0.0012 -1.1220    2.9952 -3.7356    0.0013 -1.3446    0.0000 10.0000
        Q-s-hi  E-s-hi    Q-p-hi  E-p-hi    Q-d-hi  E-d-hi    Q-f-hi  E-f-hi
:EPH004:  0.2277  0.2890    0.1748  0.4031    4.3807  0.4403    0.0105  0.4364
 
                      QXX         QXY         QYY         QZZ       UP TO R
:VZZ004:             1.27917    -0.00913     1.26348    -2.54262       2.300
 
:POS005: ATOM   -5 X,Y,Z = 0.00000 0.00000 0.00000  MULT= 1  ZZ= 65.000  Tb1
 
       LMMAX 16
       LM=   0 0  2 0  2 2 -2 2  4 0  4 2 -4 2  4 4 -4 4  6 0  6 2 -6 2  6 4 -6 4  6 6 -6 6
 
:CHA005: TOTAL VALENCE CHARGE INSIDE SPHERE   5 =  11.1087    (RMT=  2.5000 )
:PCS005: PARTIAL CHARGES SPHERE =  5 S,P,D,F,PX,PY,PZ,D-Z2,D-X2Y2,D-XY,D-XZ,D-YZ
:QTL005: 1.0494 2.8838 0.2760 6.8978 0.9632 0.9632 0.9575 0.0439 0.0674 0.0672 0.0487 0.0485
        Q-s-low E-s-low   Q-p-low E-p-low   Q-d-low E-d-low   Q-f-low E-f-low
:EPL005:  0.9856 -2.7493    2.8029 -1.0339    0.0000 10.0000    0.0000 10.0000
        Q-s-hi  E-s-hi    Q-p-hi  E-p-hi    Q-d-hi  E-d-hi    Q-f-hi  E-f-hi
:EPH005:  0.0632  0.3216    0.0812  0.3822    0.2760  0.4182    6.8978  0.3133
 
                      QXX         QXY         QYY         QZZ       UP TO R
:VZZ005:            -2.55184     0.65560    -1.77158     4.32341       2.500
 
:CHA  : TOTAL VALENCE CHARGE INSIDE UNIT CELL =      53.552018
 
:SUM  : SUM OF EIGENVALUES =         -48.073373923
 
:GAP (global)   :    0.0    Ry =     0.0   eV (metal)
:GAP (this spin):    0.0    Ry =     0.0   eV (metal)
         Bandranges (emin - emax) and occupancy:
:BAN00086:  86    0.520467    0.577733  1.00000000
:BAN00087:  87    0.530032    0.587185  1.00000000
:BAN00088:  88    0.536909    0.602020  1.00000000
:BAN00089:  89    0.540647    0.603552  1.00000000
:BAN00090:  90    0.548628    0.609474  1.00000000
:BAN00091:  91    0.558971    0.611840  1.00000000
:BAN00092:  92    0.576474    0.614979  0.99371138
:BAN00093:  93    0.587505    0.615819  0.97521565
:BAN00094:  94    0.594879    0.617453  0.81710970
:BAN00095:  95    0.608097    0.626672  0.21321436
:BAN00096:  96    0.612820    0.631271  0.00074880
:BAN00097:  97    0.615008    0.636339  0.00000000
:BAN00098:  98    0.617069    0.640404  0.00000000
:BAN00099:  99    0.622970    0.651984  0.00000000
:BAN00100: 100    0.629101    0.659421  0.00000000
:BAN00101: 101    0.636131    0.670382  0.00000000
        Energy to separate low and high energystates:   -0.01312


:NOE  : NUMBER OF ELECTRONS          =   94.000

:FER  : F E R M I - ENERGY(TETRAH.M.)=   0.6132679756
:GMA  : POTENTIAL AND CHARGE CUT-OFF  16.00 Ry**.5
 
:POS001: ATOM   -1 X,Y,Z = 0.50000 0.00000 0.50000  MULT= 1  ZZ= 27.000  Co1
 
       LMMAX 16
       LM=   0 0  2 0  2 2 -2 2  4 0  4 2 -4 2  4 4 -4 4  6 0  6 2 -6 2  6 4 -6 4  6 6 -6 6
 
:CHA001: TOTAL VALENCE CHARGE INSIDE SPHERE   1 =   6.2170    (RMT=  2.3000 )
:PCS001: PARTIAL CHARGES SPHERE =  1 S,P,D,F,PX,PY,PZ,D-Z2,D-X2Y2,D-XY,D-XZ,D-YZ
:QTL001: 0.2316 3.2104 2.7599 0.0118 1.0600 1.0772 1.0731 0.6029 0.5646 0.5340 0.5049 0.5537
        Q-s-low E-s-low   Q-p-low E-p-low   Q-d-low E-d-low   Q-f-low E-f-low
:EPL001:  0.0000 10.0000    2.9952 -3.6018    0.0000 10.0000    0.0000 10.0000
        Q-s-hi  E-s-hi    Q-p-hi  E-p-hi    Q-d-hi  E-d-hi    Q-f-hi  E-f-hi
:EPH001:  0.2308  0.2911    0.2157  0.4454    2.7591  0.4954    0.0115  0.5014
 
                      QXX         QXY         QYY         QZZ       UP TO R
:VZZ001:             1.38316    -1.08303     0.15208    -1.53524       2.300
 
:POS002: ATOM   -2 X,Y,Z = 0.00000 0.50000 0.50000  MULT= 1  ZZ= 27.000  Co1
 
       LMMAX 16
       LM=   0 0  2 0  2 2 -2 2  4 0  4 2 -4 2  4 4 -4 4  6 0  6 2 -6 2  6 4 -6 4  6 6 -6 6
 
:CHA002: TOTAL VALENCE CHARGE INSIDE SPHERE   2 =   6.2166    (RMT=  2.3000 )
:PCS002: PARTIAL CHARGES SPHERE =  2 S,P,D,F,PX,PY,PZ,D-Z2,D-X2Y2,D-XY,D-XZ,D-YZ
:QTL002: 0.2314 3.2101 2.7596 0.0117 1.0861 1.0516 1.0728 0.6031 0.5201 0.5767 0.5797 0.4804
        Q-s-low E-s-low   Q-p-low E-p-low   Q-d-low E-d-low   Q-f-low E-f-low
:EPL002:  0.0000 10.0000    2.9952 -3.6017    0.0000 10.0000    0.0000 10.0000
        Q-s-hi  E-s-hi    Q-p-hi  E-p-hi    Q-d-hi  E-d-hi    Q-f-hi  E-f-hi
:EPH002:  0.2311  0.2912    0.2152  0.4453    2.7586  0.4955    0.0114  0.5016
 
                      QXX         QXY         QYY         QZZ       UP TO R
:VZZ002:            -0.42099     0.00461     2.04349    -1.62255       2.300
 
:POS003: ATOM   -3 X,Y,Z = 0.50000 0.50000 0.50000  MULT= 1  ZZ= 27.000  Co1
 
       LMMAX 16
       LM=   0 0  2 0  2 2 -2 2  4 0  4 2 -4 2  4 4 -4 4  6 0  6 2 -6 2  6 4 -6 4  6 6 -6 6
 
:CHA003: TOTAL VALENCE CHARGE INSIDE SPHERE   3 =   6.2170    (RMT=  2.3000 )
:PCS003: PARTIAL CHARGES SPHERE =  3 S,P,D,F,PX,PY,PZ,D-Z2,D-X2Y2,D-XY,D-XZ,D-YZ
:QTL003: 0.2312 3.2105 2.7601 0.0117 1.0600 1.0774 1.0730 0.6030 0.5619 0.5355 0.5061 0.5544
        Q-s-low E-s-low   Q-p-low E-p-low   Q-d-low E-d-low   Q-f-low E-f-low
:EPL003:  0.0000 10.0000    2.9952 -3.6017    0.0000 10.0000    0.0000 10.0000
        Q-s-hi  E-s-hi    Q-p-hi  E-p-hi    Q-d-hi  E-d-hi    Q-f-hi  E-f-hi
:EPH003:  0.2307  0.2913    0.2157  0.4453    2.7591  0.4955    0.0115  0.5016
 
                      QXX         QXY         QYY         QZZ       UP TO R
:VZZ003:             1.40659     1.06657     0.20119    -1.60780       2.300
 
:POS004: ATOM   -4 X,Y,Z = 0.33333 0.66667 0.00000  MULT= 2  ZZ= 27.000  Co2
 
       LMMAX 28
       LM=   0 0  1 1 -1 1  2 0  2 2 -2 2  3 1 -3 1  3 3 -3 3  4 0  4 2 -4 2  4 4 -4 4  5 1 -5 1
         5 3 -5 3  5 5 -5 5  6 0  6 2 -6 2  6 4 -6 4  6 6 -6 6
 
:CHA004: TOTAL VALENCE CHARGE INSIDE SPHERE   4 =   6.2371    (RMT=  2.3000 )
:PCS004: PARTIAL CHARGES SPHERE =  4 S,P,D,F,PX,PY,PZ,D-Z2,D-X2Y2,D-XY,D-XZ,D-YZ
:QTL004: 0.2259 3.2055 2.7913 0.0124 1.0591 1.0595 1.0864 0.5400 0.5798 0.5743 0.5483 0.5486
        Q-s-low E-s-low   Q-p-low E-p-low   Q-d-low E-d-low   Q-f-low E-f-low
:EPL004:  0.0024 -1.0117    2.9952 -3.6005    0.0024 -1.2495    0.0000 10.0000
        Q-s-hi  E-s-hi    Q-p-hi  E-p-hi    Q-d-hi  E-d-hi    Q-f-hi  E-f-hi
:EPH004:  0.2238  0.2929    0.2093  0.4469    2.7895  0.4966    0.0107  0.5118
 
                      QXX         QXY         QYY         QZZ       UP TO R
:VZZ004:             0.18772     0.04237     0.23495    -0.42267       2.300
 
:POS005: ATOM   -5 X,Y,Z = 0.00000 0.00000 0.00000  MULT= 1  ZZ= 65.000  Tb1
 
       LMMAX 16
       LM=   0 0  2 0  2 2 -2 2  4 0  4 2 -4 2  4 4 -4 4  6 0  6 2 -6 2  6 4 -6 4  6 6 -6 6
 
:CHA005: TOTAL VALENCE CHARGE INSIDE SPHERE   5 =   5.4174    (RMT=  2.5000 )
:PCS005: PARTIAL CHARGES SPHERE =  5 S,P,D,F,PX,PY,PZ,D-Z2,D-X2Y2,D-XY,D-XZ,D-YZ
:QTL005: 1.0495 2.8728 0.3440 1.1492 0.9592 0.9598 0.9540 0.0549 0.0797 0.0793 0.0655 0.0650
        Q-s-low E-s-low   Q-p-low E-p-low   Q-d-low E-d-low   Q-f-low E-f-low
:EPL005:  0.9824 -2.5686    2.7642 -0.9115    0.0000 10.0000    0.0000 10.0000
        Q-s-hi  E-s-hi    Q-p-hi  E-p-hi    Q-d-hi  E-d-hi    Q-f-hi  E-f-hi
:EPH005:  0.0661  0.3318    0.1080  0.4316    0.3440  0.4665    1.1492  0.5788
 
                      QXX         QXY         QYY         QZZ       UP TO R
:VZZ005:            -3.39542    -2.19321    -5.94839     9.34379       2.500
 
:CHA  : TOTAL VALENCE CHARGE INSIDE UNIT CELL =      40.447986
 
:SUM  : SUM OF EIGENVALUES =         -49.182914125
 
 Spin-polarized + s-o calculation, M||  1.000  0.000  0.000
 irtest           1           5   2.5000000000000031
 Density matrix UPUP block, real part.  L= 3                                   
         0.98368 -0.00012  0.00056 -0.00001 -0.00015 -0.00007  0.00225
        -0.00012  0.98585  0.00037  0.00068  0.00000  0.00004 -0.00007
         0.00056  0.00037  0.98583  0.00036  0.00086  0.00000 -0.00015
        -0.00001  0.00068  0.00036  0.98713  0.00036  0.00068 -0.00001
        -0.00015  0.00000  0.00086  0.00036  0.98583  0.00037  0.00056
        -0.00007  0.00004  0.00000  0.00068  0.00037  0.98586 -0.00011
         0.00225 -0.00007 -0.00015 -0.00001  0.00056 -0.00011  0.98368
 Density matrix UPUP block, imag part 
         0.00000 -0.00003  0.00092  0.00005  0.00022  0.00006 -0.00001
         0.00003  0.00000  0.00021  0.00118 -0.00002 -0.00003  0.00006
        -0.00092 -0.00021  0.00000  0.00027  0.00148 -0.00002  0.00022
        -0.00005 -0.00118 -0.00027  0.00000  0.00027  0.00118  0.00004
        -0.00022  0.00002 -0.00148 -0.00027  0.00000  0.00021  0.00092
        -0.00006  0.00003  0.00002 -0.00118 -0.00021  0.00000 -0.00003
         0.00001 -0.00006 -0.00022 -0.00004 -0.00092  0.00003  0.00000
 
:TRA005:  TRACE of UPUP MATRIX=   6.89791   0.00000
:POM005UP:Partial ORBITAL MOMENT in global orthog. system=  0.00428 -0.00247  0.00000
 
 
 Density matrix UPDN block, real part.  L= 3                                   
        -0.05928 -0.02398  0.00034 -0.00002  0.00035 -0.00440 -0.01420
         0.02056 -0.04309 -0.02652  0.00092  0.00001  0.00020  0.00180
        -0.00054  0.03163 -0.02140 -0.03470  0.00046  0.00001  0.00125
         0.00000 -0.00078  0.03040  0.00000 -0.03039  0.00079 -0.00000
        -0.00126 -0.00001 -0.00047  0.03470  0.02141 -0.03164  0.00055
        -0.00180 -0.00020 -0.00001 -0.00093  0.02653  0.04307 -0.02058
         0.01419  0.00441 -0.00033  0.00001 -0.00035  0.02396  0.05928
 Density matrix UPDN block, imag part 
         0.00000 -0.01382  0.00061 -0.00007 -0.00062  0.00255  0.00001
        -0.01188 -0.00000 -0.01532  0.00153  0.00073 -0.00037 -0.00100
         0.00094 -0.01828  0.00001 -0.02007  0.00078  0.00040 -0.00221
        -0.00007  0.00137 -0.01758  0.00000 -0.01757  0.00140 -0.00007
        -0.00221  0.00040  0.00079 -0.02006  0.00001 -0.01827  0.00095
        -0.00101 -0.00037  0.00072  0.00154 -0.01530 -0.00000 -0.01187
         0.00002  0.00254 -0.00062 -0.00005  0.00064 -0.01382  0.00000
 
:TRA005:  TRACE of UPDN MATRIX=   0.00000  -0.00001
 
 
 Density matrix DNDN block, real part.  L= 3                                   
         0.21039  0.04614 -0.00217 -0.00001  0.00535 -0.03493 -0.16776
         0.04614  0.11381  0.07338  0.01231 -0.00004 -0.00724 -0.03494
        -0.00217  0.07338  0.20343  0.06276  0.00418 -0.00001  0.00535
        -0.00001  0.01231  0.06276  0.09343  0.06282  0.01233 -0.00001
         0.00535 -0.00004  0.00418  0.06282  0.20360  0.07354 -0.00214
        -0.03493 -0.00724 -0.00001  0.01233  0.07354  0.11397  0.04617
        -0.16776 -0.03494  0.00535 -0.00001 -0.00214  0.04617  0.21041
 Density matrix DNDN block, imag part 
         0.00000  0.02661 -0.00382 -0.00760 -0.00929  0.02016 -0.00003
        -0.02661  0.00000  0.04237  0.02140  0.00164  0.01245  0.02011
         0.00382 -0.04237  0.00000  0.03619  0.00683  0.00162 -0.00927
         0.00760 -0.02140 -0.03619  0.00000  0.03622  0.02149 -0.00759
         0.00929 -0.00164 -0.00683 -0.03622  0.00000  0.04256 -0.00378
        -0.02016 -0.01245 -0.00162 -0.02149 -0.04256  0.00000  0.02661
         0.00003 -0.02011  0.00927  0.00759  0.00378 -0.02661  0.00000
 
:TRA005:  TRACE of DNDN MATRIX=   1.14899   0.00000
:POM005DN:Partial ORBITAL MOMENT in global orthog. system=  1.12566 -0.64983  0.00060
 
 
 
:ORB005:  ORBITAL MOMENT:  1.12992 -0.65230  0.00061 PROJECTION ON M  1.30467
:SPI005:  SPIN MOMENT:   4.97869  -2.87443   0.00003 PROJECTION ON M  5.74885

        1.ATOM      Co1                   5 CORE STATES
:1S 001: 1S                -556.817108286 Ry
:2S 001: 2S                 -64.942656716 Ry
:2PP001: 2P*                -56.179964252 Ry
:2P 001: 2P                 -55.091156723 Ry
:3S 001: 3S                  -6.440927466 Ry

        2.ATOM      Co1                   5 CORE STATES
:1S 002: 1S                -556.817042743 Ry
:2S 002: 2S                 -64.942569439 Ry
:2PP002: 2P*                -56.179878743 Ry
:2P 002: 2P                 -55.091071069 Ry
:3S 002: 3S                  -6.440870802 Ry

        3.ATOM      Co1                   5 CORE STATES
:1S 003: 1S                -556.817021012 Ry
:2S 003: 2S                 -64.942546140 Ry
:2PP003: 2P*                -56.179857861 Ry
:2P 003: 2P                 -55.091049985 Ry
:3S 003: 3S                  -6.440822860 Ry

        4.ATOM      Co2                   5 CORE STATES
       CORE-FORCE in mRy/a.u. = |F|      Fx             Fy             Fz
:FCO004:   4.ATOM      8.518973567663      2.812835201173      8.041198217777      0.000000000000

:1S 004: 1S                -556.815099133 Ry
:2S 004: 2S                 -64.937874635 Ry
:2PP004: 2P*                -56.175604190 Ry
:2P 004: 2P                 -55.086758528 Ry
:3S 004: 3S                  -6.436973159 Ry

        5.ATOM      Tb1                  14 CORE STATES
:1S 005: 1S               -3807.005037303 Ry
:2S 005: 2S                -630.216283065 Ry
:2PP005: 2P*               -598.802118042 Ry
:2P 005: 2P                -543.929329771 Ry
:3S 005: 3S                -139.408984622 Ry
:3PP005: 3P*               -125.754692022 Ry
:3P 005: 3P                -114.439037707 Ry
:3DD005: 3D*                -90.929050518 Ry
:3D 005: 3D                 -88.461428334 Ry
:4S 005: 4S                 -27.284199424 Ry
:4PP005: 4P*                -21.936083157 Ry
:4P 005: 4P                 -19.404777177 Ry
:4DD005: 4D*                -10.599398211 Ry
:4D 005: 4D                 -10.140287312 Ry

        1.ATOM      Co1                   5 CORE STATES
:1S 001: 1S                -556.817605731 Ry
:2S 001: 2S                 -64.875355874 Ry
:2PP001: 2P*                -56.130357153 Ry
:2P 001: 2P                 -55.039977434 Ry
:3S 001: 3S                  -6.298991086 Ry

        2.ATOM      Co1                   5 CORE STATES
:1S 002: 1S                -556.817538587 Ry
:2S 002: 2S                 -64.875258352 Ry
:2PP002: 2P*                -56.130263273 Ry
:2P 002: 2P                 -55.039883218 Ry
:3S 002: 3S                  -6.298910947 Ry

        3.ATOM      Co1                   5 CORE STATES
:1S 003: 1S                -556.817515153 Ry
:2S 003: 2S                 -64.875259601 Ry
:2PP003: 2P*                -56.130259779 Ry
:2P 003: 2P                 -55.039880137 Ry
:3S 003: 3S                  -6.298914069 Ry

        4.ATOM      Co2                   5 CORE STATES
       CORE-FORCE in mRy/a.u. = |F|      Fx             Fy             Fz
:FCO004:   4.ATOM      8.354917580037      2.723591888296      7.898524861974      0.000000000000

:1S 004: 1S                -556.815559514 Ry
:2S 004: 2S                 -64.872280587 Ry
:2PP004: 2P*                -56.127260655 Ry
:2P 004: 2P                 -55.036882940 Ry
:3S 004: 3S                  -6.298590352 Ry

        5.ATOM      Tb1                  14 CORE STATES
:1S 005: 1S               -3807.005154080 Ry
:2S 005: 2S                -630.213139110 Ry
:2PP005: 2P*               -598.800602677 Ry
:2P 005: 2P                -543.926846874 Ry
:3S 005: 3S                -139.241252189 Ry
:3PP005: 3P*               -125.603708536 Ry
:3P 005: 3P                -114.264921193 Ry
:3DD005: 3D*                -90.804852707 Ry
:3D 005: 3D                 -88.331335991 Ry
:4S 005: 4S                 -26.903575254 Ry
:4PP005: 4P*                -21.556006780 Ry
:4P 005: 4P                 -19.029170307 Ry
:4DD005: 4D*                -10.226190955 Ry
:4D 005: 4D                  -9.768839988 Ry
:DMATR  1_1:    0.9837    0.9859    0.9859    0.9871    0.9859    0.9859    0.9837
:DMATR  1_2:    0.2104    0.1138    0.2034    0.0934    0.2036    0.1140    0.2104
:DMATR  1_3:   -0.0593   -0.0431   -0.0214    0.0000    0.0214    0.0431    0.0593
:WARNING: Density Matrix or Orbital Potential has changed
:CINT001 Core Integral Atom   1 Up    5.99961219 Dn   5.999581 Total  11.99919367
:CINT002 Core Integral Atom   2 Up    5.99961217 Dn   5.999581 Total  11.99919364
:CINT003 Core Integral Atom   3 Up    5.99961216 Dn   5.999581 Total  11.99919365
:CINT004 Core Integral Atom   4 Up    5.99960951 Dn   5.999580 Total  11.99918918
:CINT005 Core Integral Atom   5 Up   22.99997711 Dn  22.999973 Total  45.99994993

       DENSITY AT NUCLEUS
        JATOM        VALENCE       SEMI-CORE          CORE           TOTAL
:RTO001:   1        8.141901        0.000000    17496.965901    17505.107802
:RTO002:   2        8.142619        0.000000    17496.965326    17505.107945
:RTO003:   3        8.143551        0.000000    17496.965588    17505.109139
:RTO004:   4        8.091693        0.000000    17496.913575    17505.005267
:RTO005:   5     1239.174645        0.000000  1219630.230187  1220869.404831

       HYPERFINE FIELDS FOR THOMSON RADIUS
:HFF001:           -9.385           0.000        -202.461        -211.846 (KGAUSS)
:HFF002:           -8.863           0.000        -202.496        -211.359 (KGAUSS)
:HFF003:           -8.334           0.000        -202.417        -210.751 (KGAUSS)
:HFF004:           54.669           0.000        -197.122        -142.453 (KGAUSS)
:HFF005:         2520.458           0.000       -2493.516          26.942 (KGAUSS)
:K-LIST:Reduced k-vector list    19745    2293
     
       CHARGES OF NEW CHARGE DENSITY
:NTO   : INTERSTITIAL      UP =     3.422316 DN =     3.906333 TOT =     7.328649
:NPC   : INTERSTITIAL      UP =    10.535182 DN =    10.026154 TOT =    20.561337
:NTO001: CHARGE SPHERE   1 UP =   13.807972 DN =   12.216524 TOT =   26.024495
:NTO002: CHARGE SPHERE   2 UP =   13.808252 DN =   12.216174 TOT =   26.024427
:NTO003: CHARGE SPHERE   3 UP =   13.808093 DN =   12.216428 TOT =   26.024521
:NTO004: CHARGE SPHERE   4 UP =   13.797161 DN =   12.236634 TOT =   26.033795
:NTO005: CHARGE SPHERE   5 UP =   34.109094 DN =   28.417133 TOT =   62.526227

:NEC01: NUCLEAR AND ELECTRONIC CHARGE    200.00000000   199.99590912 Plane Wave
     
       CHARGES OF OLD CHARGE DENSITY
:OTO   : INTERSTITIAL      UP =     3.424793 DN =     3.908230 TOT =     7.333023
:OPC   : INTERSTITIAL      UP =    10.541855 DN =    10.031215 TOT =    20.573070
:OTO001: CHARGE SPHERE   1 UP =   13.808265 DN =   12.216238 TOT =   26.024502
:OTO002: CHARGE SPHERE   2 UP =   13.808510 DN =   12.215900 TOT =   26.024410
:OTO003: CHARGE SPHERE   3 UP =   13.808343 DN =   12.216110 TOT =   26.024453
:OTO004: CHARGE SPHERE   4 UP =   13.797415 DN =   12.236266 TOT =   26.033681
:OTO005: CHARGE SPHERE   5 UP =   34.109086 DN =   28.417164 TOT =   62.526250

:NEC02: NUCLEAR AND ELECTRONIC CHARGE    200.00000000   200.00000000
     
       CONVERGENCE TEST
:DTO001: DIFFERENCE SPHERE  1 UP =  0.0002315 DN =  0.0003398 TOT =  0.0005713
:DTO002: DIFFERENCE SPHERE  2 UP =  0.0001872 DN =  0.0003099 TOT =  0.0004971
:DTO003: DIFFERENCE SPHERE  3 UP =  0.0001725 DN =  0.0003613 TOT =  0.0005338
:DTO004: DIFFERENCE SPHERE  4 UP =  0.0002406 DN =  0.0003749 TOT =  0.0006155
:DTO005: DIFFERENCE SPHERE  5 UP =  0.0002214 DN =  0.0004540 TOT =  0.0006753

:DIS  :  CHARGE DISTANCE      (  0.0004540 for atom    5 spin 2)      0.0011696
:MIX  :  PRATT  REGULARIZATION:  2.00E-04 GREED: 0.05000                 
     
       CHARGES OF MIXED CHARGE DENSITY
:CTO   : INTERSTITIAL      UP =     3.424765 DN =     3.908245 TOT =     7.333009
:CPC   : INTERSTITIAL      UP =    10.541815 DN =    10.031242 TOT =    20.573057
:CTO001: CHARGE SPHERE   1 UP =   13.808250 DN =   12.216252 TOT =   26.024502
:CTO002: CHARGE SPHERE   2 UP =   13.808497 DN =   12.215914 TOT =   26.024411
:CTO003: CHARGE SPHERE   3 UP =   13.808331 DN =   12.216125 TOT =   26.024456
:CTO004: CHARGE SPHERE   4 UP =   13.797402 DN =   12.236284 TOT =   26.033686
:CTO005: CHARGE SPHERE   5 UP =   34.109086 DN =   28.417163 TOT =   62.526249

       SPIN MAGNETIC MOMENTS OF MIXED CHARGE DENSITY
:MMINT:  MAGNETIC MOMENT IN INTERSTITIAL  =   -0.48348
:MMI001: MAGNETIC MOMENT IN SPHERE   1    =    1.59200
:MMI002: MAGNETIC MOMENT IN SPHERE   2    =    1.59258
:MMI003: MAGNETIC MOMENT IN SPHERE   3    =    1.59221
:MMI004: MAGNETIC MOMENT IN SPHERE   4    =    1.56112
:MMI005: MAGNETIC MOMENT IN SPHERE   5    =    5.69192
:MMTOT:  SPIN MAGNETIC MOMENT IN CELL     =   13.10747

:NEC03: NUCLEAR AND ELECTRONIC CHARGE    200.00000000   200.00000000

PW CHANGE     H    K    L      Current       Change    Residue
:PUP001:      0    0    0  2.44839659E-02 -1.191E-07 -2.382E-06
:PUP002:     -1    0    0  2.71815021E-03  6.790E-08  1.358E-06
:PUP003:     -1    1    0  2.72129318E-03  6.523E-08  1.305E-06
:PUP004:      0   -1    0  2.71984105E-03  6.108E-08  1.222E-06
:PUP005:      0    0   -1  6.35061224E-03  4.543E-08  9.087E-07
:PUP006:     -1    0   -1  6.87457758E-03  5.409E-09  1.082E-07
:PUP007:     -1    0    1  6.87453875E-03  6.110E-09  1.222E-07
:PUP008:     -1    1   -1  6.87435783E-03  6.317E-09  1.263E-07
:PUP009:     -1    1    1  6.87416640E-03  6.415E-09  1.283E-07
:PUP010:      0   -1   -1  6.87529574E-03  3.122E-09  6.244E-08
:PUP011:      0   -1    1  6.87525630E-03  3.683E-09  7.366E-08
:PUP012:     -2    1    0  6.28050018E-03  4.104E-09  8.207E-08
  
:PDN001:      0    0    0  2.44364708E-02  7.178E-08  1.436E-06
:PDN002:     -1    0    0  3.52108673E-03  4.882E-09  9.764E-08
:PDN003:     -1    1    0  3.51906295E-03  7.299E-09  1.460E-07
:PDN004:      0   -1    0  3.53136489E-03 -1.292E-09 -2.583E-08
:PDN005:      0    0   -1  6.66428497E-03  4.362E-08  8.725E-07
:PDN006:     -1    0   -1  6.80758861E-03  9.828E-09  1.966E-07
:PDN007:     -1    0    1  6.80766020E-03  9.657E-09  1.931E-07
:PDN008:     -1    1   -1  6.80712268E-03  7.567E-09  1.513E-07
:PDN009:     -1    1    1  6.80722069E-03  7.685E-09  1.537E-07
:PDN010:      0   -1   -1  6.81229888E-03  1.133E-08  2.267E-07
:PDN011:      0   -1    1  6.81232422E-03  1.105E-08  2.210E-07
:PDN012:     -2    1    0  6.02909356E-03  2.267E-09  4.533E-08
:DMATW  1_1:    0.9837    0.9859    0.9859    0.9871    0.9859    0.9859    0.9837
:DMATW  1_2:    0.2104    0.1138    0.2034    0.0934    0.2036    0.1140    0.2104
:DMATW  1_3:   -0.0593   -0.0431   -0.0214    0.0000    0.0214    0.0431    0.0593

:ENE  : *WARNING** TOTAL ENERGY IN Ry =       -37373.11184594

:FOR001:   1.ATOM          0.000          0.000          0.000          0.000 partial forces
:FOR002:   2.ATOM          0.000          0.000          0.000          0.000 partial forces
:FOR003:   3.ATOM          0.000          0.000          0.000          0.000 partial forces
:FOR004:   4.ATOM          0.738         -0.068         -0.735          0.000 partial forces
:FOR005:   5.ATOM          0.000          0.000          0.000          0.000 partial forces
       TOTAL FORCE WITH RESPECT TO THE GLOBAL COORDINATE SYSTEM:
:FGL001:   1.ATOM                 0.000000000     0.000000000     0.000000000 partial forces
:FGL002:   2.ATOM                 0.000000000     0.000000000     0.000000000 partial forces
:FGL003:   3.ATOM                 0.000000000     0.000000000     0.000000000 partial forces
:FGL004:   4.ATOM                -0.078672055    -0.774240683     0.000000000 partial forces
:FGL005:   5.ATOM                 0.000000000     0.000000000     0.000000000 partial forces
 Euler-Maclaurian Coulomb
 Consistent 3/8+Simpson combinations at start/end
 New Mode for Coulomb Integral
 Extension of core to zero
 LDM version in phi
 Fifth-order quadrature in outwin
 Lebedev-Laikov Grid in lapw0


            ---------
:ITE052: 52. ITERATION
            ---------

:NATO :    5 INDEPENDENT AND    6 TOTAL ATOMS IN UNITCELL
       SUBSTANCE: blebleble                                s-o calc. M||  0.10

       LATTICE                      = H   
:LAT  : LATTICE CONSTANTS=  9.34658  9.34658  7.54001
:VOL  : UNIT CELL VOLUME =     570.43781
:POT  : POTENTIAL OPTION EX_PBE EC_PBE VX_PBE VC_PBE
       MODE OF CALCULATION IS       = RELA
       SPINPOLARIZED CALCULATION
:IFFT  : FFT-parameters:   96   96   80 Factor: 2.00


   CONVERGENCE PARAMETER FOR PSEUDOCHARGE: NCON=  9
   MAXIMAL VALUE OF RMT(JATOM)*ABSK(NKK) : RK  =39.99508


:VKCOUL :  VK-COUL convergence: 0.832E-10
 Lebedev grid of          350
 :rho_min:   2.0000000000000000E-008   1.0000000000000001E-009
:VCOUL001 ATOMNUMBER=  1 Co1     VCOUL-ZERO =  0.58160E+00
:EFG001:                        EFG         =     3.98042   *10**21  V / m**2
                               V20  TOT/SRF=    -0.81060     0.01105
                               V22  TOT/SRF=     1.76526    -0.05113
                               V22M TOT/SRF=    -3.03661     0.08883
                               V21  TOT/SRF=     0.00000     0.00000
                               V21M TOT/SRF=     0.00000     0.00000

              2.23326   -3.03661    0.00000        3.98042    0.00000    0.00000
             -3.03661   -1.29726    0.00000        0.00000   -3.04443    0.00000
              0.00000    0.00000   -0.93600        0.00000    0.00000   -0.93600

         MAIN DIRECTIONS OF THE EFG   1.0000  0.5754  0.0000
                                     -0.5754  1.0000  0.0000
                                      0.0000  0.0000  1.0000
:ANG001:  ANGLE WITH OLD X-AXIS =        29.9

:ETA001:                         ASYMM. ETA =     0.52970


:VCOUL002 ATOMNUMBER=  2 Co1     VCOUL-ZERO =  0.58157E+00
:EFG002:                        EFG         =     3.99628   *10**21  V / m**2
                               V20  TOT/SRF=    -0.86944     0.01095
                               V22  TOT/SRF=    -3.49428     0.10249
                               V22M TOT/SRF=     0.01396     0.00007
                               V21  TOT/SRF=     0.00000     0.00000
                               V21M TOT/SRF=     0.00000     0.00000

             -2.99231    0.01396    0.00000       -2.99234    0.00000    0.00000
              0.01396    3.99625    0.00000        0.00000    3.99628    0.00000
              0.00000    0.00000   -1.00394        0.00000    0.00000   -1.00394

         MAIN DIRECTIONS OF THE EFG   1.0000  0.0020  0.0000
                                     -0.0020  1.0000  0.0000
                                     -0.0000 -0.0000  1.0000
:ANG002:  ANGLE WITH OLD X-AXIS =         0.1

:ETA002:                         ASYMM. ETA =     0.49756


:VCOUL003 ATOMNUMBER=  3 Co1     VCOUL-ZERO =  0.58164E+00
:EFG003:                        EFG         =     4.00551   *10**21  V / m**2
                               V20  TOT/SRF=    -0.87384     0.01097
                               V22  TOT/SRF=     1.74863    -0.05121
                               V22M TOT/SRF=     3.03303    -0.08883
                               V21  TOT/SRF=     0.00000     0.00000
                               V21M TOT/SRF=     0.00000     0.00000

              2.25315    3.03303    0.00000        4.00551    0.00000    0.00000
              3.03303   -1.24412    0.00000        0.00000   -2.99649    0.00000
              0.00000    0.00000   -1.00903        0.00000    0.00000   -1.00903

         MAIN DIRECTIONS OF THE EFG   1.0000 -0.5778  0.0000
                                      0.5778  1.0000  0.0000
                                      0.0000  0.0000  1.0000
:ANG003:  ANGLE WITH OLD X-AXIS =        30.0

:ETA003:                         ASYMM. ETA =     0.49618


:VCOUL004 ATOMNUMBER=  4 Co2     VCOUL-ZERO =  0.57122E+00
:EFG004:                        EFG         =    -2.84330   *10**21  V / m**2
                               V20  TOT/SRF=    -2.46237     0.05382
                               V22  TOT/SRF=    -0.01465    -0.00005
                               V22M TOT/SRF=     0.03343     0.00018
                               V21  TOT/SRF=     0.00000     0.00000
                               V21M TOT/SRF=     0.00000     0.00000

              1.40700    0.03343    0.00000        1.38515    0.00000    0.00000
              0.03343    1.43630    0.00000        0.00000    1.45815    0.00000
              0.00000    0.00000   -2.84330        0.00000    0.00000   -2.84330

         MAIN DIRECTIONS OF THE EFG   1.0000  0.6535  0.0000
                                     -0.6535  1.0000  0.0000
                                     -0.0000 -0.0000  1.0000
:ANG004:  ANGLE WITH OLD X-AXIS =        33.2

:ETA004:                         ASYMM. ETA =     0.02567


:VCOUL005 ATOMNUMBER=  5 Tb1     VCOUL-ZERO =  0.36450E+00
:EFG005:                        EFG         =    13.60923   *10**21  V / m**2
                               V20  TOT/SRF=    11.78594     0.01344
                               V22  TOT/SRF=     0.89416     0.00104
                               V22M TOT/SRF=    -1.55297    -0.00187
                               V21  TOT/SRF=     0.00000     0.00000
                               V21M TOT/SRF=     0.00000     0.00000

             -5.91046   -1.55297    0.00000       -5.01263    0.00000    0.00000
             -1.55297   -7.69878    0.00000        0.00000   -8.59661    0.00000
              0.00000    0.00000   13.60923        0.00000    0.00000   13.60923

         MAIN DIRECTIONS OF THE EFG   1.0000  0.5781  0.0000
                                     -0.5781  1.0000  0.0000
                                      0.0000  0.0000  1.0000
:ANG005:  ANGLE WITH OLD X-AXIS =        30.0

:ETA005:                         ASYMM. ETA =     0.26335


     HELLMANN-FEYNMAN-FORCE IN mRy/a.u. = |F|  Fx       Fy             Fz
:FHF001:   1.ATOM      0.000000000000      0.000000000000      0.000000000000      0.000000000000

     HELLMANN-FEYNMAN-FORCE IN mRy/a.u. = |F|  Fx       Fy             Fz
:FHF002:   2.ATOM      0.000000000000      0.000000000000      0.000000000000      0.000000000000

     HELLMANN-FEYNMAN-FORCE IN mRy/a.u. = |F|  Fx       Fy             Fz
:FHF003:   3.ATOM      0.000000000000      0.000000000000      0.000000000000      0.000000000000

     HELLMANN-FEYNMAN-FORCE IN mRy/a.u. = |F|  Fx       Fy             Fz
:FHF004:   4.ATOM      9.167662856858     -2.844878324732     -8.715085173106      0.000000000000

     HELLMANN-FEYNMAN-FORCE IN mRy/a.u. = |F|  Fx       Fy             Fz
:FHF005:   5.ATOM      0.000000000000      0.000000000000      0.000000000000      0.000000000000

:FIT001: LUSE= 13 SIGMA OF V-XC FIT FOR ATOM  1  0.4913580E-03
:FIT001: LUSE= 13 SIGMA OF V-XC FIT FOR ATOM  1  0.1144859E-02
:FIT002: LUSE= 13 SIGMA OF V-XC FIT FOR ATOM  2  0.4873805E-03
:FIT002: LUSE= 13 SIGMA OF V-XC FIT FOR ATOM  2  0.1150159E-02
:FIT003: LUSE= 13 SIGMA OF V-XC FIT FOR ATOM  3  0.4865380E-03
:FIT003: LUSE= 13 SIGMA OF V-XC FIT FOR ATOM  3  0.1149415E-02
:FIT004: LUSE= 13 SIGMA OF V-XC FIT FOR ATOM  4  0.3405926E-03
:FIT004: LUSE= 13 SIGMA OF V-XC FIT FOR ATOM  4  0.1298611E-02
:FIT005: LUSE= 13 SIGMA OF V-XC FIT FOR ATOM  5  0.2774469E-03
:FIT005: LUSE= 13 SIGMA OF V-XC FIT FOR ATOM  5  0.9504435E-03
:DEN  : DENSITY INTEGRAL  =        -14927.16453421   (Ry)
       ELS_POTENTIAL_AT Z=0 and Z=0.5:  -0.85318  -0.36112
       ELS_POTENTIAL_AT Y=0 and Y=0.5:  -0.56942  -0.25132
:VZERO:v0,v0c,v0x  -1.71029  -0.85318  -0.85711 v5,v5c,v5x  -1.11630  -0.36112  -0.75518
:VZERY:v0,v0c,v0x  -1.37069  -0.56942  -0.80128 v5,v5c,v5x  -1.07434  -0.25132  -0.82303
:VZERX:v0,v0c,v0x  -1.36944  -0.56817  -0.80127 v5,v5c,v5x  -1.07433  -0.25127  -0.82306
 :INFO: VX.gt.+1.0   1.3589770822216427       rho   9.1881815974660455E-003
        Fully Localized Limit method
        Atom  5 L=  3 U=  0.588 J=  0.000 Ry
:EORB:   8.23200000

        Atom           5  spin up   Potential real part (Ry)
:VORBr  5_ 1   M= -3  -0.29400  -0.00000   0.00000   0.00000  -0.00000  -0.00000   0.00000
:VORBr  5_ 1   M= -2  -0.00000  -0.29400   0.00000  -0.00000   0.00000  -0.00000   0.00000
:VORBr  5_ 1   M= -1   0.00000   0.00000  -0.29400  -0.00000  -0.00000  -0.00000   0.00000
:VORBr  5_ 1   M=  0   0.00000  -0.00000  -0.00000  -0.29400   0.00000   0.00000   0.00000
:VORBr  5_ 1   M=  1  -0.00000   0.00000  -0.00000   0.00000  -0.29400   0.00000   0.00000
:VORBr  5_ 1   M=  2  -0.00000  -0.00000  -0.00000   0.00000   0.00000  -0.29400   0.00000
:VORBr  5_ 1   M=  3   0.00000   0.00000   0.00000   0.00000   0.00000   0.00000  -0.29400

                       Potential imaginary part (Ry)
:VORBi  5_ 1   M= -3  -0.00000   0.00000  -0.00000   0.00000  -0.00000  -0.00000  -0.00000
:VORBi  5_ 1   M= -2  -0.00000  -0.00000  -0.00000   0.00000   0.00000  -0.00000   0.00000
:VORBi  5_ 1   M= -1   0.00000   0.00000   0.00000   0.00000  -0.00000  -0.00000   0.00000
:VORBi  5_ 1   M=  0  -0.00000  -0.00000  -0.00000  -0.00000  -0.00000  -0.00000   0.00000
:VORBi  5_ 1   M=  1   0.00000  -0.00000   0.00000   0.00000  -0.00000  -0.00000  -0.00000
:VORBi  5_ 1   M=  2   0.00000   0.00000   0.00000   0.00000   0.00000  -0.00000  -0.00000
:VORBi  5_ 1   M=  3   0.00000  -0.00000  -0.00000  -0.00000   0.00000   0.00000  -0.00000
        Fully Localized Limit method
        Atom  5 L=  3 U=  0.588 J=  0.000 Ry
:EORB:  -5.88000000

        Atom           5  spin down Potential real part (Ry)
:VORBr  5_-1   M= -3   0.28481  -0.01949  -0.01779   0.00000   0.01779   0.01949   0.00919
:VORBr  5_-1   M= -2  -0.01949   0.23887  -0.07548  -0.05032   0.00000   0.02756   0.01949
:VORBr  5_-1   M= -1  -0.01779  -0.07548   0.15619  -0.13781  -0.06891   0.00000   0.01779
:VORBr  5_-1   M=  0   0.00000  -0.05032  -0.13781   0.11025  -0.13781  -0.05032   0.00000
:VORBr  5_-1   M=  1   0.01779   0.00000  -0.06891  -0.13781   0.15619  -0.07548  -0.01779
:VORBr  5_-1   M=  2   0.01949   0.02756   0.00000  -0.05032  -0.07548   0.23887  -0.01949
:VORBr  5_-1   M=  3   0.00919   0.01949   0.01779   0.00000  -0.01779  -0.01949   0.28481

                       Potential imaginary part (Ry)
:VORBi  5_-1   M= -3  -0.00000   0.01125   0.03082   0.04109   0.03082   0.01125  -0.00000
:VORBi  5_-1   M= -2  -0.01125  -0.00000   0.04358   0.08716   0.08716   0.04774   0.01125
:VORBi  5_-1   M= -1  -0.03082  -0.04358  -0.00000   0.07957   0.11935   0.08716   0.03082
:VORBi  5_-1   M=  0  -0.04109  -0.08716  -0.07957  -0.00000   0.07957   0.08716   0.04109
:VORBi  5_-1   M=  1  -0.03082  -0.08716  -0.11935  -0.07957  -0.00000   0.04358   0.03082
:VORBi  5_-1   M=  2  -0.01125  -0.04774  -0.08716  -0.08716  -0.04358  -0.00000   0.01125
:VORBi  5_-1   M=  3   0.00000  -0.01125  -0.03082  -0.04109  -0.03082  -0.01125  -0.00000
        Fully Localized Limit method
        Atom  5 L=  3 U=  0.588 J=  0.000 Ry
:EORB:   0.00000000

        Atom           5  spin dnup Potential real part (Ry)
:VORBr  5_ 2   M= -3   0.00000   0.00000   0.00000  -0.00000  -0.00000  -0.00000  -0.00000
:VORBr  5_ 2   M= -2  -0.00000   0.00000  -0.00000  -0.00000   0.00000   0.00000   0.00000
:VORBr  5_ 2   M= -1  -0.00000  -0.00000   0.00000  -0.00000  -0.00000   0.00000   0.00000
:VORBr  5_ 2   M=  0   0.00000  -0.00000  -0.00000   0.00000  -0.00000  -0.00000   0.00000
:VORBr  5_ 2   M=  1  -0.00000  -0.00000   0.00000   0.00000   0.00000   0.00000   0.00000
:VORBr  5_ 2   M=  2   0.00000   0.00000  -0.00000  -0.00000  -0.00000   0.00000  -0.00000
:VORBr  5_ 2   M=  3  -0.00000  -0.00000  -0.00000  -0.00000   0.00000   0.00000   0.00000

                       Potential imaginary part (Ry)
:VORBi  5_ 2   M= -3   0.00000  -0.00000  -0.00000  -0.00000  -0.00000  -0.00000   0.00000
:VORBi  5_ 2   M= -2  -0.00000  -0.00000   0.00000   0.00000   0.00000   0.00000   0.00000
:VORBi  5_ 2   M= -1  -0.00000  -0.00000   0.00000   0.00000   0.00000   0.00000   0.00000
:VORBi  5_ 2   M=  0  -0.00000  -0.00000  -0.00000   0.00000   0.00000   0.00000   0.00000
:VORBi  5_ 2   M=  1   0.00000   0.00000   0.00000   0.00000   0.00000  -0.00000  -0.00000
:VORBi  5_ 2   M=  2  -0.00000  -0.00000  -0.00000  -0.00000  -0.00000  -0.00000   0.00000
:VORBi  5_ 2   M=  3  -0.00000   0.00000   0.00000   0.00000   0.00000   0.00000   0.00000
:LMAX-WF:   10   Non-Spherical LMAX:   6

          ATOMIC SPHERE DEPENDENT PARAMETERS FOR ATOM  Co1       
:e__0001: OVERALL ENERGY PARAMETER IS    0.4133
          OVERALL BASIS SET ON ATOM IS LAPW
:E1_0001: E( 1)=    0.4133
             APW+lo
:E1_0001: E( 1)=   -3.7476   E(BOTTOM)=   -3.783   E(TOP)=   -3.713  1  2   185
             LOCAL ORBITAL
:E2_0001: E( 2)=    0.4242   E(BOTTOM)=    0.188   E(TOP)=    0.660  0  1   126
             APW+lo
:E0_0001: E( 0)=    0.4133
             APW+lo

          ATOMIC SPHERE DEPENDENT PARAMETERS FOR ATOM  Co1       
:e__0002: OVERALL ENERGY PARAMETER IS    0.4133
          OVERALL BASIS SET ON ATOM IS LAPW
:E1_0002: E( 1)=    0.4133
             APW+lo
:E1_0002: E( 1)=   -3.7475   E(BOTTOM)=   -3.782   E(TOP)=   -3.713  1  2   183
             LOCAL ORBITAL
:E2_0002: E( 2)=    0.4242   E(BOTTOM)=    0.188   E(TOP)=    0.660  0  1   125
             APW+lo
:E0_0002: E( 0)=    0.4133
             APW+lo

          ATOMIC SPHERE DEPENDENT PARAMETERS FOR ATOM  Co1       
:e__0003: OVERALL ENERGY PARAMETER IS    0.4133
          OVERALL BASIS SET ON ATOM IS LAPW
:E1_0003: E( 1)=    0.4133
             APW+lo
:E1_0003: E( 1)=   -3.7475   E(BOTTOM)=   -3.782   E(TOP)=   -3.713  1  2   178
             LOCAL ORBITAL
:E2_0003: E( 2)=    0.4242   E(BOTTOM)=    0.188   E(TOP)=    0.660  0  1   131
             APW+lo
:E0_0003: E( 0)=    0.4133
             APW+lo

          ATOMIC SPHERE DEPENDENT PARAMETERS FOR ATOM  Co2       
:e__0004: OVERALL ENERGY PARAMETER IS    0.4133
          OVERALL BASIS SET ON ATOM IS LAPW
:E1_0004: E( 1)=    0.4133
             APW+lo
:E1_0004: E( 1)=   -3.7442   E(BOTTOM)=   -3.779   E(TOP)=   -3.709  1  2   179
             LOCAL ORBITAL
:E2_0004: E( 2)=    0.4254   E(BOTTOM)=    0.188   E(TOP)=    0.663  0  1   121
             APW+lo
:E0_0004: E( 0)=    0.4133
             APW+lo

          ATOMIC SPHERE DEPENDENT PARAMETERS FOR ATOM  Tb1       
:e__0005: OVERALL ENERGY PARAMETER IS    0.4133
          OVERALL BASIS SET ON ATOM IS LAPW
:E0_0005: E( 0)=    0.4133
             APW+lo
:E0_0005: E( 0)=   -2.7842   E(BOTTOM)=   -2.974   E(TOP)=   -2.594  4  5   170
             LOCAL ORBITAL
:E1_0005: E( 1)=    0.8133
             APW+lo
:E1_0005: E( 1)=   -1.0573   E(BOTTOM)=   -1.480   E(TOP)=   -0.635  3  4   162
             LOCAL ORBITAL
:E3_0005: E( 3)=    0.3023   E(BOTTOM)=    0.242   E(TOP)=    0.362  0  0   111
             APW+lo
:E2_0005: E( 2)=    0.4133   E(BOTTOM)=    0.315   E(TOP)= -520.000  2 -1    85
             APW+lo

       K=  0.031250  0.031250  0.029412            1
:RKM  : MATRIX SIZE   653LOs:  80  RKM= 9.00  WEIGHT= 2.00  PGR:    
       EIGENVALUES ARE:
:EIG00001:      -3.7562624   -3.7533440   -3.7454543   -3.7453619   -3.7446792
:EIG00006:      -3.7372908   -3.7370719   -3.7357727   -3.7357401   -3.7336917
:EIG00011:      -3.7334761   -3.7326112   -3.7310726   -3.7309641   -3.7307714
:EIG00016:      -2.7495411   -1.0280323   -1.0256540   -1.0211320    0.0382866
:EIG00021:       0.2511063    0.2974457    0.3038217    0.3066851    0.3141581
:EIG00026:       0.3147203    0.3152232    0.3299667    0.3320319    0.3322380
:EIG00031:       0.3351868    0.3364849    0.3438130    0.3443014    0.3603319
:EIG00036:       0.3610159    0.3892428    0.4197335    0.4204066    0.4452291
:EIG00041:       0.4468377    0.4679193    0.4711289    0.4711818    0.4910969
:EIG00046:       0.4950067    0.4953648    0.5157932    0.5163681    0.5718959

:EIG00051:       0.5745511    0.5760961    0.6568434    0.6961708    0.7170303
:EIG00056:       0.7333758    0.7543593    0.8062250    0.8117292    0.9311494
:EIG00061:       0.9366647    1.1949066    1.2426706    1.2441496    1.3767444
:EIG00066:       1.4007326    1.4099286    1.4593944    1.4678841    1.4910418
:EIG00071:       1.5352507    1.6516834    1.6668478    1.7271197    1.7548460
:EIG00076:       1.9254624    1.9365824    2.0883531    2.0952447    2.2115330
:EIG00081:       2.3326240    2.3477576    2.3508747    2.3896279    2.4070988
:EIG00086:       2.4245429    2.4597070    2.4816583    2.5292864    2.5295577
:EIG00091:       2.6864833    2.7839871    2.7916204    2.8744965    2.9457586
:EIG00096:       2.9675640    2.9843976    2.9894834    2.9978044    3.0367720

:EIG00101:       3.0519403    3.0780950    3.1309481    3.1469043    3.2433832
:EIG00106:       3.2567173    3.2911189    3.3114729    3.3777471    3.3798459
:EIG00111:       3.4652300    3.5121106    3.5139396    3.5769544    3.5951739
:EIG00116:       3.6256554    3.6651546    3.7373363    3.7553863    3.7918086
:EIG00121:       3.7962059    3.8870305    4.0309428    4.0559793    4.0894945
:EIG00126:       4.0961398    4.1308648    4.1925717    4.2339129    4.2607455
:EIG00131:       4.3503165    4.3582808    4.4122322    4.4432750    4.4447585
:EIG00136:       4.4721967    4.4746798    4.5039171    4.6196384    4.6210638
:EIG00141:       4.6264203    4.6397473    4.6862937    4.7128190    4.7316059
:EIG00146:       4.7460747    4.8029874    4.8174384    4.8330041    4.8335816

:EIG00151:       4.8550037    4.9016554    4.9111289    4.9703784    4.9793797
:EIG00156:       5.0531769    5.0573893    5.0695961    5.1388324    5.1785069
:EIG00161:       5.1801566    5.2127254    5.2684856    5.2847964    5.3560025
:EIG00166:       5.3682416    5.4306248    5.4807290    5.4879455    5.4978857
       ********************************************************

:KPT   :      NUMBER OF K-POINTS:    2176
:LMAX-WF:   10   Non-Spherical LMAX:   6

          ATOMIC SPHERE DEPENDENT PARAMETERS FOR ATOM  Co1       
:e__0001: OVERALL ENERGY PARAMETER IS    0.4133
          OVERALL BASIS SET ON ATOM IS LAPW
:E1_0001: E( 1)=    0.4133
             APW+lo
:E1_0001: E( 1)=   -3.6099   E(BOTTOM)=   -3.647   E(TOP)=   -3.573  1  2   192
             LOCAL ORBITAL
:E2_0001: E( 2)=    0.5436   E(BOTTOM)=    0.289   E(TOP)=    0.798  0  1   126
             APW+lo
:E0_0001: E( 0)=    0.4133
             APW+lo

          ATOMIC SPHERE DEPENDENT PARAMETERS FOR ATOM  Co1       
:e__0002: OVERALL ENERGY PARAMETER IS    0.4133
          OVERALL BASIS SET ON ATOM IS LAPW
:E1_0002: E( 1)=    0.4133
             APW+lo
:E1_0002: E( 1)=   -3.6098   E(BOTTOM)=   -3.647   E(TOP)=   -3.573  1  2   196
             LOCAL ORBITAL
:E2_0002: E( 2)=    0.5437   E(BOTTOM)=    0.289   E(TOP)=    0.798  0  1   122
             APW+lo
:E0_0002: E( 0)=    0.4133
             APW+lo

          ATOMIC SPHERE DEPENDENT PARAMETERS FOR ATOM  Co1       
:e__0003: OVERALL ENERGY PARAMETER IS    0.4133
          OVERALL BASIS SET ON ATOM IS LAPW
:E1_0003: E( 1)=    0.4133
             APW+lo
:E1_0003: E( 1)=   -3.6098   E(BOTTOM)=   -3.647   E(TOP)=   -3.573  1  2   195
             LOCAL ORBITAL
:E2_0003: E( 2)=    0.5437   E(BOTTOM)=    0.289   E(TOP)=    0.798  0  1   125
             APW+lo
:E0_0003: E( 0)=    0.4133
             APW+lo

          ATOMIC SPHERE DEPENDENT PARAMETERS FOR ATOM  Co2       
:e__0004: OVERALL ENERGY PARAMETER IS    0.4133
          OVERALL BASIS SET ON ATOM IS LAPW
:E1_0004: E( 1)=    0.4133
             APW+lo
:E1_0004: E( 1)=   -3.6099   E(BOTTOM)=   -3.647   E(TOP)=   -3.573  1  2   196
             LOCAL ORBITAL
:E2_0004: E( 2)=    0.5422   E(BOTTOM)=    0.286   E(TOP)=    0.798  0  1   129
             APW+lo
:E0_0004: E( 0)=    0.4133
             APW+lo

          ATOMIC SPHERE DEPENDENT PARAMETERS FOR ATOM  Tb1       
:e__0005: OVERALL ENERGY PARAMETER IS    0.4133
          OVERALL BASIS SET ON ATOM IS LAPW
:E0_0005: E( 0)=    0.4133
             APW+lo
:E0_0005: E( 0)=   -2.6057   E(BOTTOM)=   -2.815   E(TOP)=   -2.396  4  5   188
             LOCAL ORBITAL
:E1_0005: E( 1)=    0.8133
             APW+lo
:E1_0005: E( 1)=   -0.9258   E(BOTTOM)=   -1.379   E(TOP)=   -0.473  3  4   175
             LOCAL ORBITAL
:E3_0005: E( 3)=    0.6262   E(BOTTOM)=    0.546   E(TOP)=    0.706  0  1   119
             APW+lo
:E2_0005: E( 2)=    0.4133   E(BOTTOM)=    0.368   E(TOP)= -520.000  2 -1    84
             APW+lo

       K=  0.031250  0.031250  0.029412            1
:RKM  : MATRIX SIZE   653LOs:  80  RKM= 9.00  WEIGHT= 2.00  PGR:    
       EIGENVALUES ARE:
:EIG00001:      -3.6169202   -3.6160284   -3.6066843   -3.6066290   -3.6061275
:EIG00006:      -3.6020059   -3.6018915   -3.6006389   -3.6005632   -3.5985699
:EIG00011:      -3.5985226   -3.5947946   -3.5946964   -3.5943477   -3.5936158
:EIG00016:      -2.5689494   -0.9048871   -0.9003662   -0.8996629    0.0428385
:EIG00021:       0.3323372    0.3805034    0.3859198    0.3993350    0.4254515
:EIG00026:       0.4255252    0.4282086    0.4545414    0.4549775    0.4560720
:EIG00031:       0.5119778    0.5125773    0.5403149    0.5415824    0.5871179
:EIG00036:       0.5932069    0.5935449    0.6109111    0.6143851    0.6152060
:EIG00041:       0.6173774    0.6246871    0.6265261    0.6293988    0.6303849
:EIG00046:       0.6325096    0.6480900    0.6511455    0.6656219    0.6949115

:EIG00051:       0.7008206    0.7032889    0.7454719    0.7462109    0.7792803
:EIG00056:       0.8033333    0.8075280    0.8365372    0.8493045    0.9863657
:EIG00061:       0.9906160    1.2478193    1.2969697    1.2989894    1.4070036
:EIG00066:       1.4279428    1.4452371    1.4797982    1.4936682    1.5210784
:EIG00071:       1.5682907    1.6712477    1.6904110    1.7391808    1.7581580
:EIG00076:       1.9398638    1.9507183    2.1251526    2.1307605    2.2262493
:EIG00081:       2.3194596    2.3352630    2.3458869    2.3957046    2.4079051
:EIG00086:       2.4311639    2.4672211    2.4919095    2.5374481    2.5393332
:EIG00091:       2.6732668    2.7805632    2.7906017    2.8547699    2.9540254
:EIG00096:       2.9774479    2.9840677    3.0210443    3.0230219    3.0253403

:EIG00101:       3.0671184    3.0772181    3.1206439    3.1361222    3.2392925
:EIG00106:       3.2507019    3.2843299    3.3107392    3.3883363    3.3910522
:EIG00111:       3.4689815    3.5155281    3.5241972    3.5771140    3.5940695
:EIG00116:       3.6277327    3.6666000    3.7355099    3.7584107    3.7993471
:EIG00121:       3.7996763    3.8951669    4.0346525    4.0698776    4.0980139
:EIG00126:       4.1022022    4.1250130    4.1936772    4.2435067    4.2835831
:EIG00131:       4.3488848    4.3579937    4.4107078    4.4392719    4.4469705
:EIG00136:       4.4846983    4.4890894    4.5069748    4.6084195    4.6218299
:EIG00141:       4.6297305    4.6357120    4.6833983    4.7140793    4.7205810
:EIG00146:       4.7316930    4.7947544    4.8121362    4.8212317    4.8252694

:EIG00151:       4.8438143    4.8936878    4.9077492    4.9726132    4.9814225
:EIG00156:       5.0534079    5.0567351    5.0661931    5.1474047    5.1812457
:EIG00161:       5.1820466    5.2155302    5.2718202    5.2894903    5.3697809
:EIG00166:       5.3831242    5.4254690    5.4848050    5.4941195    5.5023732
       ********************************************************

:KPT   :      NUMBER OF K-POINTS:    2176
  Potential not averaged when calculating dV/dr
  90.0 -30.0 angle (M,z), angle (M,x) deg
 LDA+U potential       added for atom type  5 L=  3 spin block down
 LDA+U potential       added for atom type  5 L=  3 spin block up  
 LDA+U potential       added for atom type  5 L=  3 spin block dnup

        SPIN-ORBIT EIGENVALUES:
     K=  0.031250  0.031250  0.029412            1
      MATRIX SIZE=  340   WEIGHT= 2.00
     EIGENVALUES ARE:
          -3.8093765   -3.8078497   -3.8040099   -3.8035369   -3.7970212
          -3.7796725   -3.7722566   -3.7689975   -3.7670511   -3.7641015
          -3.7001949   -3.6977056   -3.6943958   -3.6929522   -3.6870415
          -3.6195947   -3.6182812   -3.6160449   -3.6147509   -3.6075131
          -3.5902677   -3.5828523   -3.5815349   -3.5792393   -3.5751346
          -3.5633309   -3.5608865   -3.5590958   -3.5556712   -3.5499606
          -2.7495411   -2.5689494   -1.2039119   -1.1624878   -0.9221900
          -0.8733675   -0.8392922   -0.8058296   -0.0047251   -0.0000653

           0.0080678    0.0162843    0.0364780    0.0382884    0.0415298
           0.0428486    0.0546878    0.2510565    0.3250372    0.3312069
           0.3316233    0.3324461    0.3327813    0.3356284    0.3435527
           0.3439143    0.3598066    0.3606052    0.3805453    0.3858675
           0.3886652    0.3992431    0.4168173    0.4178160    0.4252002
           0.4253342    0.4282931    0.4448617    0.4464935    0.4541178
           0.4545398    0.4566414    0.4652709    0.4707092    0.4734946
           0.4909681    0.4951638    0.4957020    0.5155427    0.5160682

           0.5166578    0.5169367    0.5410959    0.5424690    0.5716262
           0.5736662    0.5770678    0.5857370    0.5935268    0.5954329
           0.6153658    0.6158222    0.6263508    0.6292361    0.6327134
           0.6546074    0.6861266    0.6960486    0.6994508    0.7040699
           0.7147720    0.7247067    0.7288172    0.7315807    0.7536183
           0.7783346    0.7937914    0.7954326    0.8054789    0.8098659
           0.8175724    0.8409236    0.9188912    0.9260369    0.9306869
           0.9360570    0.9391139    0.9419234    0.9578304    0.9646109

           0.9869564    0.9917959    1.1949261    1.2413746    1.2429327
           1.2478994    1.2987019    1.3004544    1.3710625    1.3939192
           1.4056518    1.4135357    1.4363051    1.4458921    1.4539236
           1.4608974    1.4789860    1.4952928    1.5011694    1.5240545
           1.5333425    1.5704885    1.6484874    1.6661228    1.6754368
           1.6911677    1.7282479    1.7383780    1.7407437    1.7781879

       ********************************************************
:GAP (global)   :    0.0    Ry =     0.0   eV (metal)
:GAP (this spin):    0.0    Ry =     0.0   eV (metal)
         Bandranges (emin - emax) and occupancy:
:BAN00086:  86    0.515955    0.574911  1.00000000
:BAN00087:  87    0.521307    0.577735  1.00000000
:BAN00088:  88    0.530569    0.588618  1.00000000
:BAN00089:  89    0.536819    0.605188  1.00000000
:BAN00090:  90    0.541934    0.611641  1.00000000
:BAN00091:  91    0.548549    0.615585  0.99994022
:BAN00092:  92    0.558858    0.617908  0.99640163
:BAN00093:  93    0.579661    0.626955  0.96439402
:BAN00094:  94    0.591730    0.630932  0.79459150
:BAN00095:  95    0.611118    0.633847  0.24467245
:BAN00096:  96    0.615451    0.669178  0.00000003
:BAN00097:  97    0.619431    0.694354  0.00000000
:BAN00098:  98    0.622727    0.696577  0.00000000
:BAN00099:  99    0.628067    0.701764  0.00000000
:BAN00100: 100    0.634200    0.704388  0.00000000
:BAN00101: 101    0.649864    0.714772  0.00000000
        Energy to separate low and high energystates:   -0.05533


:NOE  : NUMBER OF ELECTRONS          =   94.000

:FER  : F E R M I - ENERGY(TETRAH.M.)=   0.6155594891
:GMA  : POTENTIAL AND CHARGE CUT-OFF  16.00 Ry**.5
 
:POS001: ATOM   -1 X,Y,Z = 0.50000 0.00000 0.50000  MULT= 1  ZZ= 27.000  Co1
 
       LMMAX 16
       LM=   0 0  2 0  2 2 -2 2  4 0  4 2 -4 2  4 4 -4 4  6 0  6 2 -6 2  6 4 -6 4  6 6 -6 6
 
:CHA001: TOTAL VALENCE CHARGE INSIDE SPHERE   1 =   7.8108    (RMT=  2.3000 )
:PCS001: PARTIAL CHARGES SPHERE =  1 S,P,D,F,PX,PY,PZ,D-Z2,D-X2Y2,D-XY,D-XZ,D-YZ
:QTL001: 0.2274 3.1800 4.3868 0.0125 1.0498 1.0687 1.0606 0.8653 0.8781 0.8828 0.8883 0.8723
        Q-s-low E-s-low   Q-p-low E-p-low   Q-d-low E-d-low   Q-f-low E-f-low
:EPL001:  0.0000 10.0000    2.9952 -3.7401    0.0000 10.0000    0.0000 10.0000
        Q-s-hi  E-s-hi    Q-p-hi  E-p-hi    Q-d-hi  E-d-hi    Q-f-hi  E-f-hi
:EPH001:  0.2271  0.2774    0.1847  0.4053    4.3865  0.4393    0.0124  0.4330
 
                      QXX         QXY         QYY         QZZ       UP TO R
:VZZ001:             0.96031    -2.15455    -1.55084     0.59047       2.300
 
:POS002: ATOM   -2 X,Y,Z = 0.00000 0.50000 0.50000  MULT= 1  ZZ= 27.000  Co1
 
       LMMAX 16
       LM=   0 0  2 0  2 2 -2 2  4 0  4 2 -4 2  4 4 -4 4  6 0  6 2 -6 2  6 4 -6 4  6 6 -6 6
 
:CHA002: TOTAL VALENCE CHARGE INSIDE SPHERE   2 =   7.8114    (RMT=  2.3000 )
:PCS002: PARTIAL CHARGES SPHERE =  2 S,P,D,F,PX,PY,PZ,D-Z2,D-X2Y2,D-XY,D-XZ,D-YZ
:QTL002: 0.2276 3.1802 4.3871 0.0122 1.0786 1.0405 1.0608 0.8653 0.8857 0.8754 0.8641 0.8968
        Q-s-low E-s-low   Q-p-low E-p-low   Q-d-low E-d-low   Q-f-low E-f-low
:EPL002:  0.0000 10.0000    2.9952 -3.7400    0.0000 10.0000    0.0000 10.0000
        Q-s-hi  E-s-hi    Q-p-hi  E-p-hi    Q-d-hi  E-d-hi    Q-f-hi  E-f-hi
:EPH002:  0.2274  0.2776    0.1849  0.4053    4.3865  0.4393    0.0120  0.4331
 
                      QXX         QXY         QYY         QZZ       UP TO R
:VZZ002:            -2.79666     0.00265     2.18375     0.61288       2.300
 
:POS003: ATOM   -3 X,Y,Z = 0.50000 0.50000 0.50000  MULT= 1  ZZ= 27.000  Co1
 
       LMMAX 16
       LM=   0 0  2 0  2 2 -2 2  4 0  4 2 -4 2  4 4 -4 4  6 0  6 2 -6 2  6 4 -6 4  6 6 -6 6
 
:CHA003: TOTAL VALENCE CHARGE INSIDE SPHERE   3 =   7.8112    (RMT=  2.3000 )
:PCS003: PARTIAL CHARGES SPHERE =  3 S,P,D,F,PX,PY,PZ,D-Z2,D-X2Y2,D-XY,D-XZ,D-YZ
:QTL003: 0.2278 3.1797 4.3869 0.0126 1.0500 1.0692 1.0608 0.8654 0.8781 0.8832 0.8885 0.8722
        Q-s-low E-s-low   Q-p-low E-p-low   Q-d-low E-d-low   Q-f-low E-f-low
:EPL003:  0.0000 10.0000    2.9952 -3.7400    0.0000 10.0000    0.0000 10.0000
        Q-s-hi  E-s-hi    Q-p-hi  E-p-hi    Q-d-hi  E-d-hi    Q-f-hi  E-f-hi
:EPH003:  0.2276  0.2776    0.1846  0.4054    4.3865  0.4394    0.0124  0.4330
 
                      QXX         QXY         QYY         QZZ       UP TO R
:VZZ003:             0.95300     2.16017    -1.55741     0.60443       2.300
 
:POS004: ATOM   -4 X,Y,Z = 0.33333 0.66667 0.00000  MULT= 2  ZZ= 27.000  Co2
 
       LMMAX 28
       LM=   0 0  1 1 -1 1  2 0  2 2 -2 2  3 1 -3 1  3 3 -3 3  4 0  4 2 -4 2  4 4 -4 4  5 1 -5 1
         5 3 -5 3  5 5 -5 5  6 0  6 2 -6 2  6 4 -6 4  6 6 -6 6
 
:CHA004: TOTAL VALENCE CHARGE INSIDE SPHERE   4 =   7.7994    (RMT=  2.3000 )
:PCS004: PARTIAL CHARGES SPHERE =  4 S,P,D,F,PX,PY,PZ,D-Z2,D-X2Y2,D-XY,D-XZ,D-YZ
[...]
         0.00000  0.00016  0.00000 -0.00032  0.00000  0.99284  0.00000
         0.00029  0.00000  0.00009  0.00000 -0.00016  0.00000  0.99325
 Density matrix UPUP block, imag part 
         0.00000  0.00000 -0.00022  0.00000 -0.00017  0.00000  0.00000
         0.00000  0.00000  0.00000 -0.00048  0.00000 -0.00028  0.00000
         0.00022  0.00000  0.00000  0.00000 -0.00069  0.00000 -0.00017
         0.00000  0.00048  0.00000  0.00000  0.00000 -0.00048  0.00000
         0.00017  0.00000  0.00069  0.00000  0.00000  0.00000 -0.00022
         0.00000  0.00028  0.00000  0.00048  0.00000  0.00000  0.00000
         0.00000  0.00000  0.00017  0.00000  0.00022  0.00000  0.00000
 
:TRA005:  TRACE of UPUP MATRIX=   6.94821   0.00000
:POM005UP:Partial ORBITAL MOMENT in global orthog. system= -0.00073  0.00043  0.00000
 
 
 Density matrix UPDN block, real part.  L= 3                                   
        -0.02688 -0.00768  0.00160  0.00000 -0.00160 -0.00160 -0.00065
         0.01127 -0.01536 -0.00771  0.00320  0.00000 -0.00160 -0.00100
         0.00032  0.01536 -0.00544 -0.00960  0.00224  0.00000 -0.00064
         0.00000 -0.00032  0.01408  0.00000 -0.01408  0.00032  0.00000
         0.00064  0.00000 -0.00224  0.00960  0.00544 -0.01536 -0.00032
         0.00100  0.00160  0.00000 -0.00320  0.00771  0.01536 -0.01127
         0.00065  0.00160  0.00160  0.00000 -0.00160  0.00768  0.02688
 Density matrix UPDN block, imag part 
         0.00000 -0.00448  0.00288  0.00352  0.00288  0.00096  0.00000
        -0.00649  0.00000 -0.00448  0.00544  0.00512  0.00288  0.00064
        -0.00064 -0.00896  0.00000 -0.00570  0.00416  0.00224  0.00096
        -0.00032  0.00064 -0.00832  0.00000 -0.00832  0.00064 -0.00032
         0.00096  0.00224  0.00416 -0.00570  0.00000 -0.00896 -0.00064
         0.00064  0.00288  0.00512  0.00544 -0.00448  0.00000 -0.00649
         0.00000  0.00096  0.00288  0.00352  0.00288 -0.00448  0.00000
 
:TRA005:  TRACE of UPDN MATRIX=   0.00000   0.00000
 
 
 Density matrix DNDN block, real part.  L= 3                                   
         0.02280  0.03249  0.02929  0.00001 -0.02966 -0.03233 -0.01377
         0.03249  0.09655  0.12574  0.08310  0.00000 -0.04569 -0.03233
         0.02929  0.12574  0.23406  0.22974  0.11479  0.00000 -0.02966
         0.00001  0.08310  0.22974  0.30982  0.22975  0.08310  0.00001
        -0.02966  0.00000  0.11479  0.22975  0.23406  0.12574  0.02929
        -0.03233 -0.04569  0.00000  0.08310  0.12574  0.09655  0.03249
        -0.01377 -0.03233 -0.02966  0.00001  0.02929  0.03249  0.02280
 Density matrix DNDN block, imag part 
         0.00000  0.01878  0.05082  0.06826  0.05143  0.01865 -0.00001
        -0.01878  0.00000  0.07260  0.14396  0.14496  0.07910  0.01866
        -0.05082 -0.07260  0.00000  0.13266  0.19882  0.14496  0.05143
        -0.06826 -0.14396 -0.13266  0.00000  0.13266  0.14395  0.06826
        -0.05143 -0.14496 -0.19882 -0.13266  0.00000  0.07260  0.05082
        -0.01865 -0.07910 -0.14496 -0.14395 -0.07260  0.00000  0.01878
         0.00001 -0.01866 -0.05143 -0.06826 -0.05082 -0.01878  0.00000
 
:TRA005:  TRACE of DNDN MATRIX=   1.01667   0.00000
:POM005DN:Partial ORBITAL MOMENT in global orthog. system=  2.54614 -1.47003  0.00000
 
 
 
:ORB005:  ORBITAL MOMENT:  2.54538 -1.46960  0.00000 PROJECTION ON M  2.93916
:SPI005:  SPIN MOMENT:   5.13687  -2.96576   0.00000 PROJECTION ON M  5.93154

        1.ATOM      Co1                   5 CORE STATES
:1S 001: 1S                -556.813632381 Ry
:2S 001: 2S                 -64.938799276 Ry
:2PP001: 2P*                -56.176219277 Ry
:2P 001: 2P                 -55.087401925 Ry
:3S 001: 3S                  -6.436472882 Ry

        2.ATOM      Co1                   5 CORE STATES
:1S 002: 1S                -556.813091398 Ry
:2S 002: 2S                 -64.938333013 Ry
:2PP002: 2P*                -56.175725476 Ry
:2P 002: 2P                 -55.086910699 Ry
:3S 002: 3S                  -6.436396661 Ry

        3.ATOM      Co1                   5 CORE STATES
:1S 003: 1S                -556.813118839 Ry
:2S 003: 2S                 -64.938377335 Ry
:2PP003: 2P*                -56.175766323 Ry
:2P 003: 2P                 -55.086951863 Ry
:3S 003: 3S                  -6.436448661 Ry

        4.ATOM      Co2                   5 CORE STATES
       CORE-FORCE in mRy/a.u. = |F|      Fx             Fy             Fz
:FCO004:   4.ATOM     14.276004160298      6.872091502552     12.513139221051      0.000000000000

:1S 004: 1S                -556.811339861 Ry
:2S 004: 2S                 -64.933231767 Ry
:2PP004: 2P*                -56.171190961 Ry
:2P 004: 2P                 -55.082325208 Ry
:3S 004: 3S                  -6.431535331 Ry

        5.ATOM      Tb1                  14 CORE STATES
:1S 005: 1S               -3807.020971966 Ry
:2S 005: 2S                -630.233440711 Ry
:2PP005: 2P*               -598.818982953 Ry
:2P 005: 2P                -543.946331669 Ry
:3S 005: 3S                -139.430786042 Ry
:3PP005: 3P*               -125.776120301 Ry
:3P 005: 3P                -114.460945649 Ry
:3DD005: 3D*                -90.949892553 Ry
:3D 005: 3D                 -88.482408597 Ry
:4S 005: 4S                 -27.310929947 Ry
:4PP005: 4P*                -21.962764735 Ry
:4P 005: 4P                 -19.431398825 Ry
:4DD005: 4D*                -10.625828765 Ry
:4D 005: 4D                 -10.166677408 Ry

        1.ATOM      Co1                   5 CORE STATES
:1S 001: 1S                -556.814107668 Ry
:2S 001: 2S                 -64.872320322 Ry
:2PP001: 2P*                -56.127207832 Ry
:2P 001: 2P                 -55.036837893 Ry
:3S 001: 3S                  -6.296214016 Ry

        2.ATOM      Co1                   5 CORE STATES
:1S 002: 1S                -556.813567290 Ry
:2S 002: 2S                 -64.871668852 Ry
:2PP002: 2P*                -56.126577324 Ry
:2P 002: 2P                 -55.036205651 Ry
:3S 002: 3S                  -6.295739286 Ry

        3.ATOM      Co1                   5 CORE STATES
:1S 003: 1S                -556.813594188 Ry
:2S 003: 2S                 -64.871689144 Ry
:2PP003: 2P*                -56.126600093 Ry
:2P 003: 2P                 -55.036228195 Ry
:3S 003: 3S                  -6.295740239 Ry

        4.ATOM      Co2                   5 CORE STATES
       CORE-FORCE in mRy/a.u. = |F|      Fx             Fy             Fz
:FCO004:   4.ATOM     13.912174739269      6.676156643278     12.205635520134      0.000000000000

:1S 004: 1S                -556.811747176 Ry
:2S 004: 2S                 -64.869261873 Ry
:2PP004: 2P*                -56.124024425 Ry
:2P 004: 2P                 -55.033665652 Ry
:3S 004: 3S                  -6.296476287 Ry

        5.ATOM      Tb1                  14 CORE STATES
:1S 005: 1S               -3807.021079759 Ry
:2S 005: 2S                -630.230191033 Ry
:2PP005: 2P*               -598.817409285 Ry
:2P 005: 2P                -543.943761923 Ry
:3S 005: 3S                -139.258002780 Ry
:3PP005: 3P*               -125.620589099 Ry
:3P 005: 3P                -114.281577241 Ry
:3DD005: 3D*                -90.821947030 Ry
:3D 005: 3D                 -88.348389558 Ry
:4S 005: 4S                 -26.918217795 Ry
:4PP005: 4P*                -21.570585906 Ry
:4P 005: 4P                 -19.043750904 Ry
:4DD005: 4D*                -10.240583228 Ry
:4D 005: 4D                  -9.783222097 Ry
:DMATR  1_1:    1.0000    1.0000    1.0000    1.0000    1.0000    1.0000    1.0000
:DMATR  1_2:    0.0156    0.0937    0.2344    0.3125    0.2344    0.0937    0.0156
:DMATR  1_3:   -0.0000   -0.0000   -0.0000   -0.0000   -0.0000   -0.0000   -0.0000
:DMATR  1_1:    0.9932    0.9928    0.9920    0.9920    0.9920    0.9928    0.9932
:DMATR  1_2:    0.0228    0.0966    0.2341    0.3098    0.2341    0.0966    0.0228
:DMATR  1_3:   -0.0269   -0.0155   -0.0054   -0.0000    0.0054    0.0155    0.0269
:CINT001 Core Integral Atom   1 Up    5.99961185 Dn   5.999582 Total  11.99919344
:CINT002 Core Integral Atom   2 Up    5.99961187 Dn   5.999582 Total  11.99919343
:CINT003 Core Integral Atom   3 Up    5.99961188 Dn   5.999582 Total  11.99919344
:CINT004 Core Integral Atom   4 Up    5.99960858 Dn   5.999580 Total  11.99918834
:CINT005 Core Integral Atom   5 Up   22.99997729 Dn  22.999973 Total  45.99995018

       DENSITY AT NUCLEUS
        JATOM        VALENCE       SEMI-CORE          CORE           TOTAL
:RTO001:   1        8.133415        0.000000    17496.968293    17505.101708
:RTO002:   2        8.142955        0.000000    17496.962237    17505.105192
:RTO003:   3        8.143579        0.000000    17496.962407    17505.105985
:RTO004:   4        8.083131        0.000000    17496.908825    17504.991956
:RTO005:   5     1241.715834        0.000000  1219629.585101  1220871.300935

       HYPERFINE FIELDS FOR THOMSON RADIUS
:HFF001:          -14.028           0.000        -200.182        -214.210 (KGAUSS)
:HFF002:          -13.075           0.000        -200.804        -213.880 (KGAUSS)
:HFF003:          -12.934           0.000        -200.871        -213.805 (KGAUSS)
:HFF004:           65.698           0.000        -192.740        -127.042 (KGAUSS)
:HFF005:         2648.828           0.000       -2577.570          71.258 (KGAUSS)
:K-LIST:Reduced k-vector list    19745    2293
     
       CHARGES OF NEW CHARGE DENSITY
:NTO   : INTERSTITIAL      UP =     3.459682 DN =     3.877351 TOT =     7.337033
:NPC   : INTERSTITIAL      UP =    10.556419 DN =    10.011980 TOT =    20.568398
:NTO001: CHARGE SPHERE   1 UP =   13.801169 DN =   12.226025 TOT =   26.027194
:NTO002: CHARGE SPHERE   2 UP =   13.802858 DN =   12.222981 TOT =   26.025838
:NTO003: CHARGE SPHERE   3 UP =   13.803137 DN =   12.222839 TOT =   26.025976
:NTO004: CHARGE SPHERE   4 UP =   13.786107 DN =   12.253371 TOT =   26.039478
:NTO005: CHARGE SPHERE   5 UP =   34.190486 DN =   28.310424 TOT =   62.500910

:NEC01: NUCLEAR AND ELECTRONIC CHARGE    200.00000000   199.99590747 Plane Wave
     
       CHARGES OF OLD CHARGE DENSITY
:OTO   : INTERSTITIAL      UP =     3.462316 DN =     3.879249 TOT =     7.341565
:OPC   : INTERSTITIAL      UP =    10.562602 DN =    10.017521 TOT =    20.580123
:OTO001: CHARGE SPHERE   1 UP =   13.801099 DN =   12.226240 TOT =   26.027340
:OTO002: CHARGE SPHERE   2 UP =   13.802701 DN =   12.222997 TOT =   26.025698
:OTO003: CHARGE SPHERE   3 UP =   13.802999 DN =   12.222655 TOT =   26.025654
:OTO004: CHARGE SPHERE   4 UP =   13.785904 DN =   12.253758 TOT =   26.039662
:OTO005: CHARGE SPHERE   5 UP =   34.190666 DN =   28.309754 TOT =   62.500419

:NEC02: NUCLEAR AND ELECTRONIC CHARGE    200.00000000   200.00000000

:VSOld: Total Rescaling   1.00000000
     
       CONVERGENCE TEST
:DTO001: DIFFERENCE SPHERE  1 UP =  0.0005191 DN =  0.0001861 TOT =  0.0007051
:DTO002: DIFFERENCE SPHERE  2 UP =  0.0002500 DN =  0.0000933 TOT =  0.0003433
:DTO003: DIFFERENCE SPHERE  3 UP =  0.0002223 DN =  0.0002260 TOT =  0.0004483
:DTO004: DIFFERENCE SPHERE  4 UP =  0.0005308 DN =  0.0005001 TOT =  0.0010309
:DTO005: DIFFERENCE SPHERE  5 UP =  0.0003477 DN =  0.0008570 TOT =  0.0012047

:DIS  :  CHARGE DISTANCE      (  0.0008570 for atom    5 spin 2)      0.0015878
 
******************************************************
* Multisecant Mixing Release 10.8.9                  *
* Standard Mode with step bound                      *
* Multisecant MSR1 Algorithm                         *
* Regularization       2.000E-04                     *
* Minimum Greed        1.000E-03                     *
* Max Number of Memory Steps    8                    *
******************************************************
 
:MVORD  NDM   294 L1   8.750557E-04 %   2.5659E+00
:INFOC: Max vcoul   0.00010 for atom   2 average:   0.00006

:FULLRMS/Atom   0.1050393325
:PLANE:  PW /ATOM     1.08604 DISTAN   1.79E-04 %  1.65E-02
:CHARG:  CLM/ATOM   260.58544 DISTAN   1.03E-03 %  3.94E-04
:INFOF Fractnow,Tolerror,TolReject,qtot     1.000     1.667     3.000     0.002 F F F

Step History
        Dmix         Dmixt        Red     Pred      Step      Lambda    MagAbs    Beta
  9   1.3975E-01   1.3975E-01  9.88E-01  9.95E-01  5.73E-01  1.32E+00  1.52E-01  1.00E+00
 10   2.1045E-01   2.1045E-01  1.13E+00  9.96E-01  5.28E-01  1.16E+00  1.38E-01  6.39E-01
 11   1.0522E-01   1.0522E-01  8.78E-01  8.82E-01  3.19E-01  2.23E+00  9.43E-02  7.72E-01
 12   8.8989E-02   8.8989E-02  9.95E-01  9.95E-01  2.71E-01  1.63E+00  7.05E-02  1.00E+00
 13   7.3980E-02   7.3980E-02  9.96E-01  9.96E-01  2.11E-01  1.45E+00  5.45E-02  1.00E+00
 14   1.2448E-01   1.2448E-01  1.00E+00  1.00E+00  2.31E-01  1.38E+00  5.95E-02  1.00E+00
 15   1.0410E-01   1.0410E-01  1.00E+00  1.00E+00  1.82E-01  1.31E+00  4.69E-02  1.00E+00
 16   2.0820E-01   2.0820E-01  1.00E+00  1.00E+00  3.64E-01  1.22E+00  9.37E-02  1.00E+00
 17   1.1248E-01   1.1248E-01  1.00E+00  1.00E+00  1.82E-01  1.12E+00  4.69E-02  1.00E+00
:NOTE :  Number of Memory Steps    8 Skipping    8
:INFOSL ,t1/t2,syy/sys,sqrt(syy/sss)     0.002     0.002     1.252     4.495     4.944     0.909     4.495    10.425     0.431

Decomposed Diagonal  YY                            SS
MEM:        DENS       ORB              ALL        DENS        ORB
  1      0.588728    0.003067       0.505287    1.000000    0.000000
  2      0.926950    0.000329       0.061646    1.000000    0.000000
  3      0.663801    0.003096       0.586639    1.000000    0.000000
  4      0.523507    0.003574       0.754911    1.000000    0.000000
  5      0.418196    0.002324       1.176069    1.000000    0.000000
  6      0.442795    0.001874       1.077459    1.000000    0.000000
  7      0.471837    0.000953       0.931087    1.000000    0.000000
  8      0.633031    0.000603       0.579454    1.000000    0.000000

:PREDicted Charge, CTotal, PW Trust   2.83E-03   1.13E-02   3.44E-03
:PREDicted DMix, Beta, BLim           1.97E-02   9.60E-01   3.06E-02

Eigenvalues, unscaled except for SY+YY with Slambda=   1.06164 Ylambda=   1.00000
   #     SY Real       SY Imag         SS            YY        SY+YY Real     SY+YY Imag
   1   2.41182E+00   0.00000E+00   5.15119E+00   1.95163E+00   4.45981E+00   0.00000E+00
   2   4.75970E-01   0.00000E+00   4.38976E-01   1.55094E+00   1.68035E+00   0.00000E+00
   3   1.51908E-01   0.00000E+00   6.99968E-02   5.61444E-01   9.98555E-01   0.00000E+00
   4   5.18737E-02   0.00000E+00   1.02568E-02   4.28956E-01   5.99790E-01   0.00000E+00
   5   2.49225E-02   0.00000E+00   1.64366E-03   1.02179E-01   1.41418E-01   0.00000E+00
   6   5.97195E-03   0.00000E+00   4.01154E-04   8.35229E-02   1.13562E-01   0.00000E+00
   7   3.03318E-04   0.00000E+00   7.96684E-05   5.63929E-03   6.08134E-03   0.00000E+00
   8   6.45725E-05   0.00000E+00   6.27008E-06   3.52122E-04   4.36516E-04   0.00000E+00

:SING : Singular value  4.472E+00  Weight  1.000E+00  Projection -7.637E-05
:SING : Singular value  1.679E+00  Weight  1.000E+00  Projection  2.491E-05
:SING : Singular value  9.989E-01  Weight  1.000E+00  Projection  2.707E-04
:SING : Singular value  5.992E-01  Weight  1.000E+00  Projection  8.661E-05
:SING : Singular value  1.417E-01  Weight  1.000E+00  Projection  4.120E-04
:SING : Singular value  1.132E-01  Weight  9.999E-01  Projection  1.729E-03
:SING : Singular value  6.081E-03  Weight  9.788E-01  Projection  1.021E-02
:SING : Singular value  4.365E-04  Weight  1.924E-01  Projection -1.400E-02

:RANK :  ACTIVE   7.17/8  =  89.64 % ; YY RANK   7.11/8  =  88.87 %
:TRUST:  Step  1.3E-01 Charge  8.1E-03 (e) CTO  2.2E-02 (e) PW  9.8E-02 (e) DM  2.0E-01
:DIRM :  MEMORY  8/8  RED  1.00 PRED  1.00 NEXT  1.00
:DIRD : |MSR1|= 1.988E-02 |PRATT|= 2.573E-01 ANGLE=   0.0 DEGREES
:DIRP : |MSR1|= 8.307E-05 |PRATT|= 6.342E-04 ANGLE=  53.6 DEGREES
:DIRQ : |MSR1|= 4.563E-04 |PRATT|= 3.630E-03 ANGLE=  37.3 DEGREES
:DIRT : |MSR1|= 1.988E-02 |PRATT|= 2.573E-01 ANGLE=   0.9 DEGREES
:MIX  :  MSE1   REGULARIZATION:  8.94E-04 GREED: 0.07727  Newton 1.00  0.0773                
     
       CHARGES OF MIXED CHARGE DENSITY
:CTO   : INTERSTITIAL      UP =     3.462278 DN =     3.879257 TOT =     7.341534
:CPC   : INTERSTITIAL      UP =    10.562662 DN =    10.017572 TOT =    20.580234
:CTO001: CHARGE SPHERE   1 UP =   13.801103 DN =   12.226247 TOT =   26.027350
:CTO002: CHARGE SPHERE   2 UP =   13.802718 DN =   12.223029 TOT =   26.025747
:CTO003: CHARGE SPHERE   3 UP =   13.803011 DN =   12.222693 TOT =   26.025704
:CTO004: CHARGE SPHERE   4 UP =   13.785925 DN =   12.253727 TOT =   26.039653
:CTO005: CHARGE SPHERE   5 UP =   34.190613 DN =   28.309746 TOT =   62.500359

       SPIN MAGNETIC MOMENTS OF MIXED CHARGE DENSITY
:MMINT:  MAGNETIC MOMENT IN INTERSTITIAL  =   -0.41698
:MMI001: MAGNETIC MOMENT IN SPHERE   1    =    1.57486
:MMI002: MAGNETIC MOMENT IN SPHERE   2    =    1.57969
:MMI003: MAGNETIC MOMENT IN SPHERE   3    =    1.58032
:MMI004: MAGNETIC MOMENT IN SPHERE   4    =    1.53220
:MMI005: MAGNETIC MOMENT IN SPHERE   5    =    5.88087
:MMTOT:  SPIN MAGNETIC MOMENT IN CELL     =   13.26315

:NEC03: NUCLEAR AND ELECTRONIC CHARGE    200.00000000   200.00000000

PW CHANGE     H    K    L      Current       Change    Residue
:PUP001:      0    0    0  2.45862732E-02  3.808E-08 -1.752E-06
:PUP002:     -1    0    0  2.71132930E-03 -5.782E-08 -6.251E-07
:PUP003:     -1    1    0  2.71225550E-03 -5.628E-08 -5.509E-07
:PUP004:      0   -1    0  2.76900689E-03 -5.412E-07 -4.035E-07
:PUP005:      0    0   -1  6.43475214E-03 -1.693E-07  1.649E-06
:PUP006:     -1    0   -1  6.86296925E-03  1.461E-07  5.601E-07
:PUP007:     -1    0    1  6.86287227E-03  1.463E-07  5.624E-07
:PUP008:     -1    1   -1  6.86286265E-03  1.444E-07  5.584E-07
:PUP009:     -1    1    1  6.86297740E-03  1.436E-07  5.531E-07
:PUP010:      0   -1   -1  6.89222910E-03  1.757E-07  1.856E-06
:PUP011:      0   -1    1  6.89234427E-03  1.762E-07  1.861E-06
:PUP012:     -2    1    0  6.20301777E-03 -1.189E-07 -1.265E-06
  
:PDN001:      0    0    0  2.43616892E-02  1.018E-07  5.397E-07
:PDN002:     -1    0    0  3.47003062E-03 -1.082E-07 -1.519E-07
:PDN003:     -1    1    0  3.46968894E-03 -1.088E-07 -1.753E-08
:PDN004:      0   -1    0  3.50910962E-03 -3.993E-07  1.364E-06
:PDN005:      0    0   -1  6.59518102E-03 -1.342E-07  3.237E-06
:PDN006:     -1    0   -1  6.79624505E-03  6.940E-08  1.347E-07
:PDN007:     -1    0    1  6.79625155E-03  6.930E-08  1.334E-07
:PDN008:     -1    1   -1  6.79681871E-03  6.996E-08  4.473E-08
:PDN009:     -1    1    1  6.79674032E-03  7.013E-08  4.758E-08
:PDN010:      0   -1   -1  6.81030594E-03  2.370E-07  2.299E-06
:PDN011:      0   -1    1  6.81032140E-03  2.368E-07  2.295E-06
:PDN012:     -2    1    0  6.08684751E-03 -3.394E-07 -3.376E-06
:DMATW  1_1:    0.9995    0.9994    0.9994    0.9994    0.9994    0.9994    0.9995
:DMATW  1_2:    0.0162    0.0940    0.2344    0.3123    0.2344    0.0940    0.0162
:DMATW  1_3:   -0.0021   -0.0012   -0.0004   -0.0000    0.0004    0.0012    0.0021

:ENE  : ********** TOTAL ENERGY IN Ry =       -37373.01242669

:FOR001:   1.ATOM          0.000          0.000          0.000          0.000 partial forces
:FOR002:   2.ATOM          0.000          0.000          0.000          0.000 partial forces
:FOR003:   3.ATOM          0.000          0.000          0.000          0.000 partial forces
:FOR004:   4.ATOM          0.629          0.443          0.447          0.000 partial forces
:FOR005:   5.ATOM          0.000          0.000          0.000          0.000 partial forces
       TOTAL FORCE WITH RESPECT TO THE GLOBAL COORDINATE SYSTEM:
:FGL001:   1.ATOM                 0.000000000     0.000000000     0.000000000 partial forces
:FGL002:   2.ATOM                 0.000000000     0.000000000     0.000000000 partial forces
:FGL003:   3.ATOM                 0.000000000     0.000000000     0.000000000 partial forces
:FGL004:   4.ATOM                 0.511912117     0.702826919     0.000000000 partial forces
:FGL005:   5.ATOM                 0.000000000     0.000000000     0.000000000 partial forces
