
:LABEL1: Calculations in /pscratch/sd/z/zhang714/cmae_jobs/cmae-main/test_TbCo5/60_n30_regular/case
:LABEL2: on nid006480 at Mon Feb 23 04:50:31 PM PST 2026
:LABEL3: using WIEN2k_24.1 (Release 1/8/2024) in /global/homes/z/zhang714/github/wien2k/src

:LABEL4: using the command: runsp_lapw -so -p -cc 0.001 -ec 0.00001 -i 100

 Euler-Maclaurian Coulomb
 Consistent 3/8+Simpson combinations at start/end
 New Mode for Coulomb Integral
 Extension of core to zero
 LDM version in phi
 Fifth-order quadrature in outwin
 Lebedev-Laikov Grid in lapw0


            ---------
:ITE001:  1. ITERATION
            ---------

:NATO :    5 INDEPENDENT AND    6 TOTAL ATOMS IN UNITCELL
       SUBSTANCE: blebleble                                s-o calc. M||  0.10

       LATTICE                      = H   
:LAT  : LATTICE CONSTANTS=  9.34658  9.34658  7.54001
:VOL  : UNIT CELL VOLUME =     570.43781
:POT  : POTENTIAL OPTION EX_PBE EC_PBE VX_PBE VC_PBE
       MODE OF CALCULATION IS       = RELA
       SPINPOLARIZED CALCULATION
:IFFT  : FFT-parameters:   96   96   80 Factor: 2.00


   CONVERGENCE PARAMETER FOR PSEUDOCHARGE: NCON=  9
   MAXIMAL VALUE OF RMT(JATOM)*ABSK(NKK) : RK  =39.99508


:VKCOUL :  VK-COUL convergence: 0.201E-09
 Lebedev grid of          350
 :rho_min:   2.0000000000000000E-008   1.0000000000000001E-009
:VCOUL001 ATOMNUMBER=  1 Co1     VCOUL-ZERO =  0.54631E+00
:EFG001:                        EFG         =    -0.14524   *10**21  V / m**2
                               V20  TOT/SRF=     0.02223     0.03257
                               V22  TOT/SRF=    -0.06619    -0.12419
                               V22M TOT/SRF=     0.11468     0.21516
                               V21  TOT/SRF=     0.00000     0.00000
                               V21M TOT/SRF=     0.00000     0.00000

             -0.07902    0.11468    0.00000       -0.14524    0.00000    0.00000
              0.11468    0.05335    0.00000        0.00000    0.11957    0.00000
              0.00000    0.00000    0.02567        0.00000    0.00000    0.02567

         MAIN DIRECTIONS OF THE EFG   1.0000  0.5775  0.0000
                                     -0.5775  1.0000  0.0000
                                     -0.0000 -0.0000  1.0000
:ANG001:  ANGLE WITH OLD X-AXIS =        30.0

:ETA001:                         ASYMM. ETA =     0.64651


:VCOUL002 ATOMNUMBER=  2 Co1     VCOUL-ZERO =  0.54630E+00
:EFG002:                        EFG         =    -0.14525   *10**21  V / m**2
                               V20  TOT/SRF=     0.02223     0.03256
                               V22  TOT/SRF=     0.13242     0.24845
                               V22M TOT/SRF=     0.00000     0.00000
                               V21  TOT/SRF=     0.00000     0.00000
                               V21M TOT/SRF=     0.00000     0.00000

              0.11959    0.00000    0.00000        0.11959    0.00000    0.00000
              0.00000   -0.14525    0.00000        0.00000   -0.14525    0.00000
              0.00000    0.00000    0.02566        0.00000    0.00000    0.02566

         MAIN DIRECTIONS OF THE EFG   1.0000 -0.0000  0.0000
                                      0.0000  1.0000  0.0000
                                      0.0000  0.0000  1.0000
:ANG002:  ANGLE WITH OLD X-AXIS =         0.0

:ETA002:                         ASYMM. ETA =     0.64663


:VCOUL003 ATOMNUMBER=  3 Co1     VCOUL-ZERO =  0.54631E+00
:EFG003:                        EFG         =    -0.14524   *10**21  V / m**2
                               V20  TOT/SRF=     0.02223     0.03257
                               V22  TOT/SRF=    -0.06619    -0.12419
                               V22M TOT/SRF=    -0.11468    -0.21516
                               V21  TOT/SRF=     0.00000     0.00000
                               V21M TOT/SRF=     0.00000     0.00000

             -0.07902   -0.11468    0.00000       -0.14524    0.00000    0.00000
             -0.11468    0.05335    0.00000        0.00000    0.11957    0.00000
              0.00000    0.00000    0.02567        0.00000    0.00000    0.02567

         MAIN DIRECTIONS OF THE EFG   1.0000 -0.5775  0.0000
                                      0.5775  1.0000  0.0000
                                     -0.0000 -0.0000  1.0000
:ANG003:  ANGLE WITH OLD X-AXIS =        30.0

:ETA003:                         ASYMM. ETA =     0.64650


:VCOUL004 ATOMNUMBER=  4 Co2     VCOUL-ZERO =  0.53118E+00
:EFG004:                        EFG         =     0.06800   *10**21  V / m**2
                               V20  TOT/SRF=     0.05889     0.14444
                               V22  TOT/SRF=    -0.00000    -0.00000
                               V22M TOT/SRF=    -0.00000    -0.00000
                               V21  TOT/SRF=     0.00000     0.00000
                               V21M TOT/SRF=     0.00000     0.00000

             -0.03400   -0.00000    0.00000       -0.03400    0.00000    0.00000
             -0.00000   -0.03400    0.00000        0.00000   -0.03400    0.00000
              0.00000    0.00000    0.06800        0.00000    0.00000    0.06800

         MAIN DIRECTIONS OF THE EFG   1.0000 -0.0139  0.0000
                                      0.0139  1.0000  0.0000
                                     -0.0000 -0.0000  1.0000
:ANG004:  ANGLE WITH OLD X-AXIS =         0.8

:ETA004:                         ASYMM. ETA =     0.00007


:VCOUL005 ATOMNUMBER=  5 Tb1     VCOUL-ZERO =  0.46773E+00
:EFG005:                        EFG         =    -0.06011   *10**21  V / m**2
                               V20  TOT/SRF=    -0.05205    -0.10149
                               V22  TOT/SRF=    -0.00001    -0.00000
                               V22M TOT/SRF=     0.00000     0.00000
                               V21  TOT/SRF=     0.00000     0.00000
                               V21M TOT/SRF=     0.00000     0.00000

              0.03004    0.00000    0.00000        0.03004    0.00000    0.00000
              0.00000    0.03006    0.00000        0.00000    0.03006    0.00000
              0.00000    0.00000   -0.06011        0.00000    0.00000   -0.06011

         MAIN DIRECTIONS OF THE EFG   1.0000  0.0031  0.0000
                                     -0.0031  1.0000  0.0000
                                     -0.0000 -0.0000  1.0000
:ANG005:  ANGLE WITH OLD X-AXIS =         0.2

:ETA005:                         ASYMM. ETA =     0.00030


     HELLMANN-FEYNMAN-FORCE IN mRy/a.u. = |F|  Fx       Fy             Fz
:FHF001:   1.ATOM      0.000000000000      0.000000000000      0.000000000000      0.000000000000

     HELLMANN-FEYNMAN-FORCE IN mRy/a.u. = |F|  Fx       Fy             Fz
:FHF002:   2.ATOM      0.000000000000      0.000000000000      0.000000000000      0.000000000000

     HELLMANN-FEYNMAN-FORCE IN mRy/a.u. = |F|  Fx       Fy             Fz
:FHF003:   3.ATOM      0.000000000000      0.000000000000      0.000000000000      0.000000000000

     HELLMANN-FEYNMAN-FORCE IN mRy/a.u. = |F|  Fx       Fy             Fz
:FHF004:   4.ATOM      0.040312446454      0.040312443443      0.000015581616      0.000000000000

     HELLMANN-FEYNMAN-FORCE IN mRy/a.u. = |F|  Fx       Fy             Fz
:FHF005:   5.ATOM      0.000000000000      0.000000000000      0.000000000000      0.000000000000

:FIT001: LUSE= 13 SIGMA OF V-XC FIT FOR ATOM  1  0.7059986E-03
:FIT001: LUSE= 13 SIGMA OF V-XC FIT FOR ATOM  1  0.9942214E-03
:FIT002: LUSE= 13 SIGMA OF V-XC FIT FOR ATOM  2  0.5570787E-03
:FIT002: LUSE= 13 SIGMA OF V-XC FIT FOR ATOM  2  0.1019206E-02
:FIT003: LUSE= 13 SIGMA OF V-XC FIT FOR ATOM  3  0.7059987E-03
:FIT003: LUSE= 13 SIGMA OF V-XC FIT FOR ATOM  3  0.9942212E-03
:FIT004: LUSE= 13 SIGMA OF V-XC FIT FOR ATOM  4  0.7020062E-03
:FIT004: LUSE= 13 SIGMA OF V-XC FIT FOR ATOM  4  0.8029772E-03
:FIT005: LUSE= 13 SIGMA OF V-XC FIT FOR ATOM  5  0.3583912E-03
:FIT005: LUSE= 13 SIGMA OF V-XC FIT FOR ATOM  5  0.5521157E-03
:DEN  : DENSITY INTEGRAL  =        -14939.13398008   (Ry)
       ELS_POTENTIAL_AT Z=0 and Z=0.5:  -0.82610  -0.42284
       ELS_POTENTIAL_AT Y=0 and Y=0.5:  -0.46384  -0.34632
:VZERO:v0,v0c,v0x  -1.73691  -0.82610  -0.91081 v5,v5c,v5x  -1.28829  -0.42284  -0.86545
:VZERY:v0,v0c,v0x  -1.30684  -0.46384  -0.84299 v5,v5c,v5x  -1.25016  -0.34632  -0.90383
:VZERX:v0,v0c,v0x  -1.30684  -0.46384  -0.84299 v5,v5c,v5x  -1.25013  -0.34630  -0.90383
:LMAX-WF:   10   Non-Spherical LMAX:   6

          ATOMIC SPHERE DEPENDENT PARAMETERS FOR ATOM  Co1       
:e__0001: OVERALL ENERGY PARAMETER IS    0.3000
          OVERALL BASIS SET ON ATOM IS LAPW
:E1_0001: E( 1)=    0.3000
             APW+lo
:E1_0001: E( 1)=   -3.7891   E(BOTTOM)=   -3.824   E(TOP)=   -3.754  1  2   175
             LOCAL ORBITAL
:E2_0001: E( 2)=    0.3790   E(BOTTOM)=    0.141   E(TOP)=    0.617  0  1   122
             APW+lo
:E0_0001: E( 0)=    0.3000
             APW+lo

          ATOMIC SPHERE DEPENDENT PARAMETERS FOR ATOM  Co1       
:e__0002: OVERALL ENERGY PARAMETER IS    0.3000
          OVERALL BASIS SET ON ATOM IS LAPW
:E1_0002: E( 1)=    0.3000
             APW+lo
:E1_0002: E( 1)=   -3.7891   E(BOTTOM)=   -3.824   E(TOP)=   -3.754  1  2   180
             LOCAL ORBITAL
:E2_0002: E( 2)=    0.3790   E(BOTTOM)=    0.141   E(TOP)=    0.617  0  1   125
             APW+lo
:E0_0002: E( 0)=    0.3000
             APW+lo

          ATOMIC SPHERE DEPENDENT PARAMETERS FOR ATOM  Co1       
:e__0003: OVERALL ENERGY PARAMETER IS    0.3000
          OVERALL BASIS SET ON ATOM IS LAPW
:E1_0003: E( 1)=    0.3000
             APW+lo
:E1_0003: E( 1)=   -3.7891   E(BOTTOM)=   -3.824   E(TOP)=   -3.754  1  2   176
             LOCAL ORBITAL
:E2_0003: E( 2)=    0.3790   E(BOTTOM)=    0.141   E(TOP)=    0.617  0  1   123
             APW+lo
:E0_0003: E( 0)=    0.3000
             APW+lo

          ATOMIC SPHERE DEPENDENT PARAMETERS FOR ATOM  Co2       
:e__0004: OVERALL ENERGY PARAMETER IS    0.3000
          OVERALL BASIS SET ON ATOM IS LAPW
:E1_0004: E( 1)=    0.3000
             APW+lo
:E1_0004: E( 1)=   -3.8024   E(BOTTOM)=   -3.838   E(TOP)=   -3.767  1  2   175
             LOCAL ORBITAL
:E2_0004: E( 2)=    0.3654   E(BOTTOM)=    0.127   E(TOP)=    0.604  0  1   129
             APW+lo
:E0_0004: E( 0)=    0.3000
             APW+lo

          ATOMIC SPHERE DEPENDENT PARAMETERS FOR ATOM  Tb1       
:e__0005: OVERALL ENERGY PARAMETER IS    0.3000
          OVERALL BASIS SET ON ATOM IS LAPW
:E0_0005: E( 0)=    0.3000
             APW+lo
:E0_0005: E( 0)=   -2.6516   E(BOTTOM)=   -2.847   E(TOP)=   -2.456  4  5   183
             LOCAL ORBITAL
:E1_0005: E( 1)=    0.7000
             APW+lo
:E1_0005: E( 1)=   -0.9352   E(BOTTOM)=   -1.369   E(TOP)=   -0.502  3  4   172
             LOCAL ORBITAL
:E3_0005: E( 3)=    0.4519   E(BOTTOM)=    0.388   E(TOP)=    0.515  0  1   113
             APW+lo
:E2_0005: E( 2)=    0.4073   E(BOTTOM)=    0.407   E(TOP)= -520.000  2 -1    93
             APW+lo

       K=  0.031250  0.031250  0.029412            1
:RKM  : MATRIX SIZE   653LOs:  80  RKM= 9.00  WEIGHT= 2.00  PGR:    
       EIGENVALUES ARE:
:EIG00001:      -3.8042574   -3.7983721   -3.7964466   -3.7943614   -3.7943197
:EIG00006:      -3.7939001   -3.7938823   -3.7833405   -3.7832644   -3.7819388
:EIG00011:      -3.7819054   -3.7782017   -3.7750052   -3.7749472   -3.7716939
:EIG00016:      -2.6165336   -0.9164679   -0.9163837   -0.8905945   -0.0007483
:EIG00021:       0.2063255    0.2863033    0.2883842    0.2887641    0.2927929
:EIG00026:       0.2940482    0.3098726    0.3104230    0.3224771    0.3269779
:EIG00031:       0.3567391    0.3573842    0.3926975    0.3933828    0.4174018
:EIG00036:       0.4297471    0.4300069    0.4518852    0.4557372    0.4566708
:EIG00041:       0.4571871    0.4614278    0.4628827    0.4632848    0.4638106
:EIG00046:       0.4666014    0.4668759    0.4688536    0.4690496    0.5185603

:EIG00051:       0.5212652    0.5304364    0.6228571    0.6802480    0.6856653
:EIG00056:       0.7079790    0.7754176    0.8020945    0.8172000    0.9928883
:EIG00061:       0.9957811    1.1867499    1.2584818    1.2626323    1.3435053
:EIG00066:       1.3726176    1.4155034    1.4214510    1.4603420    1.4887283
:EIG00071:       1.5017137    1.6351857    1.6497307    1.7438913    1.7452571
:EIG00076:       1.8997197    1.9110777    2.1088807    2.1155849    2.2587899
:EIG00081:       2.3112736    2.3261057    2.3308079    2.3724277    2.3864481
:EIG00086:       2.4086435    2.4489273    2.4718703    2.5175428    2.5184542
:EIG00091:       2.6792330    2.7827107    2.7913184    2.8530800    2.9178182
:EIG00096:       2.9556641    2.9706971    2.9759405    2.9909006    3.0147632

:EIG00101:       3.0353519    3.0561348    3.1454183    3.1588866    3.2304704
:EIG00106:       3.2569397    3.2748693    3.2860109    3.3694259    3.3721351
:EIG00111:       3.4376297    3.4972358    3.5157324    3.5769123    3.5812977
:EIG00116:       3.6154277    3.6685759    3.7273933    3.7473925    3.7917620
:EIG00121:       3.7955718    3.8507485    4.0067353    4.0431581    4.0726552
:EIG00126:       4.0743035    4.1224111    4.1717165    4.2190788    4.2674910
:EIG00131:       4.3387616    4.3449317    4.3997304    4.4248364    4.4318485
:EIG00136:       4.4549723    4.4630268    4.4757671    4.5931659    4.5987496
:EIG00141:       4.6093968    4.6216779    4.6664348    4.6914761    4.7357201
:EIG00146:       4.7435431    4.7907559    4.8093907    4.8229887    4.8323750

:EIG00151:       4.8455109    4.8991047    4.9099381    4.9607603    4.9734625
:EIG00156:       5.0176518    5.0459957    5.0573452    5.1136723    5.1735690
:EIG00161:       5.1810711    5.2063911    5.2386301    5.3063560    5.3528598
:EIG00166:       5.3631079    5.4078699    5.4723051    5.4774228    5.4837266
       ********************************************************

:KPT   :      NUMBER OF K-POINTS:    2176
:LMAX-WF:   10   Non-Spherical LMAX:   6

          ATOMIC SPHERE DEPENDENT PARAMETERS FOR ATOM  Co1       
:e__0001: OVERALL ENERGY PARAMETER IS    0.3000
          OVERALL BASIS SET ON ATOM IS LAPW
:E1_0001: E( 1)=    0.3000
             APW+lo
:E1_0001: E( 1)=   -3.5545   E(BOTTOM)=   -3.593   E(TOP)=   -3.516  1  2   205
             LOCAL ORBITAL
:E2_0001: E( 2)=    0.5878   E(BOTTOM)=    0.323   E(TOP)=    0.852  0  1   131
             APW+lo
:E0_0001: E( 0)=    0.3000
             APW+lo

          ATOMIC SPHERE DEPENDENT PARAMETERS FOR ATOM  Co1       
:e__0002: OVERALL ENERGY PARAMETER IS    0.3000
          OVERALL BASIS SET ON ATOM IS LAPW
:E1_0002: E( 1)=    0.3000
             APW+lo
:E1_0002: E( 1)=   -3.5545   E(BOTTOM)=   -3.593   E(TOP)=   -3.516  1  2   202
             LOCAL ORBITAL
:E2_0002: E( 2)=    0.5878   E(BOTTOM)=    0.323   E(TOP)=    0.852  0  1   128
             APW+lo
:E0_0002: E( 0)=    0.3000
             APW+lo

          ATOMIC SPHERE DEPENDENT PARAMETERS FOR ATOM  Co1       
:e__0003: OVERALL ENERGY PARAMETER IS    0.3000
          OVERALL BASIS SET ON ATOM IS LAPW
:E1_0003: E( 1)=    0.3000
             APW+lo
:E1_0003: E( 1)=   -3.5545   E(BOTTOM)=   -3.593   E(TOP)=   -3.516  1  2   203
             LOCAL ORBITAL
:E2_0003: E( 2)=    0.5878   E(BOTTOM)=    0.323   E(TOP)=    0.852  0  1   129
             APW+lo
:E0_0003: E( 0)=    0.3000
             APW+lo

          ATOMIC SPHERE DEPENDENT PARAMETERS FOR ATOM  Co2       
:e__0004: OVERALL ENERGY PARAMETER IS    0.3000
          OVERALL BASIS SET ON ATOM IS LAPW
:E1_0004: E( 1)=    0.3000
             APW+lo
:E1_0004: E( 1)=   -3.5677   E(BOTTOM)=   -3.606   E(TOP)=   -3.530  1  2   198
             LOCAL ORBITAL
:E2_0004: E( 2)=    0.5745   E(BOTTOM)=    0.310   E(TOP)=    0.839  0  1   130
             APW+lo
:E0_0004: E( 0)=    0.3000
             APW+lo

          ATOMIC SPHERE DEPENDENT PARAMETERS FOR ATOM  Tb1       
:e__0005: OVERALL ENERGY PARAMETER IS    0.3000
          OVERALL BASIS SET ON ATOM IS LAPW
:E0_0005: E( 0)=    0.3000
             APW+lo
:E0_0005: E( 0)=   -2.4426   E(BOTTOM)=   -2.655   E(TOP)=   -2.230  4  5   208
             LOCAL ORBITAL
:E1_0005: E( 1)=    0.7000
             APW+lo
:E1_0005: E( 1)=   -0.7666   E(BOTTOM)=   -1.226   E(TOP)=   -0.307  3  4   195
             LOCAL ORBITAL
:E3_0005: E( 3)=    0.7929   E(BOTTOM)=    0.711   E(TOP)=    0.875  0  1   144
             APW+lo
:E2_0005: E( 2)=    0.5095   E(BOTTOM)=    0.510   E(TOP)= -520.000  2 -1    98
             APW+lo

       K=  0.031250  0.031250  0.029412            1
:RKM  : MATRIX SIZE   653LOs:  80  RKM= 9.00  WEIGHT= 2.00  PGR:    
       EIGENVALUES ARE:
:EIG00001:      -3.5703030   -3.5639586   -3.5620262   -3.5591614   -3.5591237
:EIG00006:      -3.5587432   -3.5587209   -3.5480948   -3.5480138   -3.5466998
:EIG00011:      -3.5466576   -3.5422019   -3.5392824   -3.5392143   -3.5358249
:EIG00016:      -2.4061487   -0.7579457   -0.7578219   -0.7281637    0.0488828
:EIG00021:       0.3490170    0.4017107    0.4106731    0.4442316    0.4587806
:EIG00026:       0.4589490    0.4634894    0.4647946    0.4905405    0.4909365
:EIG00031:       0.5402108    0.5408563    0.5760412    0.5773595    0.6237603
:EIG00036:       0.6345271    0.6349460    0.6571549    0.6572141    0.6701300
:EIG00041:       0.6794418    0.6796855    0.6989254    0.7312596    0.7465200
:EIG00046:       0.7544194    0.7552077    0.7864033    0.7901732    0.8021099

:EIG00051:       0.8090854    0.8092041    0.8225289    0.8312594    0.8354715
:EIG00056:       0.8635992    0.8782787    0.8923458    0.9293021    1.0983904
:EIG00061:       1.1010576    1.3002977    1.3604815    1.3662177    1.4324182
:EIG00066:       1.4546786    1.4964761    1.5008131    1.5263768    1.5783513
:EIG00071:       1.5881032    1.7058863    1.7254436    1.7939216    1.8041851
:EIG00076:       1.9616716    1.9725949    2.1887121    2.1944232    2.3212826
:EIG00081:       2.3421514    2.3562020    2.3716319    2.4196707    2.4384384
:EIG00086:       2.4601228    2.5031505    2.5285161    2.5751303    2.5753505
:EIG00091:       2.7110301    2.8271238    2.8379885    2.8802460    2.9736479
:EIG00096:       3.0068138    3.0432067    3.0489937    3.0613567    3.0653293

:EIG00101:       3.0942464    3.1064417    3.1782298    3.1918832    3.2759377
:EIG00106:       3.3044590    3.3060351    3.3212436    3.4168471    3.4198993
:EIG00111:       3.4842690    3.5414633    3.5656702    3.6227800    3.6284615
:EIG00116:       3.6601627    3.7188923    3.7729234    3.7989544    3.8458147
:EIG00121:       3.8465788    3.9078107    4.0468871    4.0996151    4.1241420
:EIG00126:       4.1275028    4.1593735    4.2097512    4.2695941    4.3378495
:EIG00131:       4.3880835    4.3945303    4.4444883    4.4707096    4.4770370
:EIG00136:       4.5011602    4.5242909    4.5266186    4.6408461    4.6477169
:EIG00141:       4.6556980    4.6656012    4.7121858    4.7361838    4.7702041
:EIG00146:       4.7785394    4.8208430    4.8453203    4.8531292    4.8690191

:EIG00151:       4.8823239    4.9407536    4.9551110    5.0074797    5.0200599
:EIG00156:       5.0626099    5.0815637    5.0938516    5.1662601    5.2163471
:EIG00161:       5.2262397    5.2613820    5.2869502    5.3555722    5.4140368
:EIG00166:       5.4270159    5.4546091
       ********************************************************

:KPT   :      NUMBER OF K-POINTS:    2176
  Potential not averaged when calculating dV/dr
  60.0 -30.0 angle (M,z), angle (M,x) deg

        SPIN-ORBIT EIGENVALUES:
     K=  0.031250  0.031250  0.029412            1
      MATRIX SIZE=  337   WEIGHT= 2.00
     EIGENVALUES ARE:
          -3.8550257   -3.8538899   -3.8443249   -3.8402347   -3.8361268
          -3.8141767   -3.8138202   -3.8064347   -3.7983936   -3.7957392
          -3.7512244   -3.7511223   -3.7406980   -3.7359695   -3.7323450
          -3.5874922   -3.5859804   -3.5768842   -3.5727830   -3.5676213
          -3.5468694   -3.5465800   -3.5402094   -3.5308225   -3.5281479
          -3.5164588   -3.5155785   -3.5059898   -3.5006344   -3.4969426
          -2.6165336   -2.4061487   -1.0772411   -1.0267031   -0.8084097
          -0.7370236   -0.6946884   -0.6510342   -0.0007384    0.0488959

           0.2062511    0.2860704    0.2881977    0.2886234    0.2926407
           0.2941387    0.3093294    0.3106785    0.3223581    0.3267271
           0.3488909    0.3558539    0.3578412    0.3921598    0.3939161
           0.4016033    0.4104902    0.4164720    0.4285413    0.4312083
           0.4359417    0.4428440    0.4439875    0.4517028    0.4529034
           0.4558940    0.4574407    0.4590117    0.4593882    0.4620890
           0.4636153    0.4649886    0.4656518    0.4670185    0.4694089
           0.4792930    0.4903069    0.4904597    0.4918499    0.5187475

           0.5214857    0.5308575    0.5393563    0.5416257    0.5755935
           0.5778842    0.6227231    0.6230981    0.6339573    0.6363299
           0.6550882    0.6596061    0.6696112    0.6783967    0.6803026
           0.6816557    0.6857867    0.6988671    0.7080454    0.7310772
           0.7462720    0.7539981    0.7555872    0.7753839    0.7792348
           0.7883085    0.7972551    0.8026496    0.8102552    0.8177717
           0.8189416    0.8293980    0.8337196    0.8384272    0.8652914
           0.8798809    0.8939309    0.9292569    0.9915121    0.9967495

           1.0971370    1.1019306    1.1868053    1.2561598    1.2644268
           1.3003236    1.3433297    1.3593307    1.3680215    1.3728346
           1.4154435    1.4209275    1.4325867    1.4546260    1.4592380
           1.4883741    1.4962582    1.4991138    1.5027321    1.5281101
           1.5782575    1.5882287    1.6353156    1.6498992    1.7058288
           1.7252059    1.7450344    1.7458621    1.7940206    1.8034863

       ********************************************************
:GAP (global)   :    0.0    Ry =     0.0   eV (metal)
:GAP (this spin):    0.0    Ry =     0.0   eV (metal)
         Bandranges (emin - emax) and occupancy:
:BAN00087:  87    0.536154    0.622731  1.00000000
:BAN00088:  88    0.537326    0.634886  1.00000000
:BAN00089:  89    0.566291    0.638638  1.00000000
:BAN00090:  90    0.574170    0.646509  1.00000000
:BAN00091:  91    0.575442    0.655430  0.99683213
:BAN00092:  92    0.583741    0.659830  0.97238181
:BAN00093:  93    0.614274    0.669774  0.93161623
:BAN00094:  94    0.622269    0.679056  0.80187737
:BAN00095:  95    0.624495    0.680332  0.27063272
:BAN00096:  96    0.643968    0.682493  0.02643010
:BAN00097:  97    0.651456    0.688608  0.00022971
:BAN00098:  98    0.664780    0.706977  0.00000000
:BAN00099:  99    0.670846    0.727438  0.00000000
:BAN00100: 100    0.679238    0.737463  0.00000000
:BAN00101: 101    0.685017    0.748029  0.00000000
:BAN00102: 102    0.699325    0.774771  0.00000000
        Energy to separate low and high energystates:   -0.05211


:NOE  : NUMBER OF ELECTRONS          =   94.000

:FER  : F E R M I - ENERGY(TETRAH.M.)=   0.6540552852
:GMA  : POTENTIAL AND CHARGE CUT-OFF  16.00 Ry**.5
 
:POS001: ATOM   -1 X,Y,Z = 0.50000 0.00000 0.50000  MULT= 1  ZZ= 27.000  Co1
 
       LMMAX 16
       LM=   0 0  2 0  2 2 -2 2  4 0  4 2 -4 2  4 4 -4 4  6 0  6 2 -6 2  6 4 -6 4  6 6 -6 6
 
:CHA001: TOTAL VALENCE CHARGE INSIDE SPHERE   1 =   7.9748    (RMT=  2.3000 )
:PCS001: PARTIAL CHARGES SPHERE =  1 S,P,D,F,PX,PY,PZ,D-Z2,D-X2Y2,D-XY,D-XZ,D-YZ
:QTL001: 0.2397 3.2074 4.5104 0.0130 1.0547 1.0796 1.0735 0.8951 0.8985 0.9070 0.9083 0.9011
        Q-s-low E-s-low   Q-p-low E-p-low   Q-d-low E-d-low   Q-f-low E-f-low
:EPL001:  0.0000 10.0000    2.9952 -3.7813    0.0000 10.0000    0.0000 10.0000
        Q-s-hi  E-s-hi    Q-p-hi  E-p-hi    Q-d-hi  E-d-hi    Q-f-hi  E-f-hi
:EPH001:  0.2390  0.2573    0.2119  0.3999    4.5091  0.4006    0.0129  0.3938
 
                      QXX         QXY         QYY         QZZ       UP TO R
:VZZ001:             1.63820    -2.47332    -1.28631    -0.35191       2.300
 
:POS002: ATOM   -2 X,Y,Z = 0.00000 0.50000 0.50000  MULT= 1  ZZ= 27.000  Co1
 
       LMMAX 16
       LM=   0 0  2 0  2 2 -2 2  4 0  4 2 -4 2  4 4 -4 4  6 0  6 2 -6 2  6 4 -6 4  6 6 -6 6
 
:CHA002: TOTAL VALENCE CHARGE INSIDE SPHERE   2 =   7.9746    (RMT=  2.3000 )
:PCS002: PARTIAL CHARGES SPHERE =  2 S,P,D,F,PX,PY,PZ,D-Z2,D-X2Y2,D-XY,D-XZ,D-YZ
:QTL002: 0.2395 3.2073 4.5101 0.0132 1.0919 1.0426 1.0733 0.8953 0.9111 0.8943 0.8971 0.9128
        Q-s-low E-s-low   Q-p-low E-p-low   Q-d-low E-d-low   Q-f-low E-f-low
:EPL002:  0.0000 10.0000    2.9952 -3.7814    0.0000 10.0000    0.0000 10.0000
        Q-s-hi  E-s-hi    Q-p-hi  E-p-hi    Q-d-hi  E-d-hi    Q-f-hi  E-f-hi
:EPH002:  0.2389  0.2572    0.2119  0.3999    4.5095  0.4006    0.0128  0.3941
 
                      QXX         QXY         QYY         QZZ       UP TO R
:VZZ002:            -2.68906     0.02825     3.04453    -0.35550       2.300
 
:POS003: ATOM   -3 X,Y,Z = 0.50000 0.50000 0.50000  MULT= 1  ZZ= 27.000  Co1
 
       LMMAX 16
       LM=   0 0  2 0  2 2 -2 2  4 0  4 2 -4 2  4 4 -4 4  6 0  6 2 -6 2  6 4 -6 4  6 6 -6 6
 
:CHA003: TOTAL VALENCE CHARGE INSIDE SPHERE   3 =   7.9751    (RMT=  2.3000 )
:PCS003: PARTIAL CHARGES SPHERE =  3 S,P,D,F,PX,PY,PZ,D-Z2,D-X2Y2,D-XY,D-XZ,D-YZ
:QTL003: 0.2397 3.2075 4.5101 0.0130 1.0549 1.0796 1.0737 0.8953 0.8985 0.9067 0.9088 0.9011
        Q-s-low E-s-low   Q-p-low E-p-low   Q-d-low E-d-low   Q-f-low E-f-low
:EPL003:  0.0000 10.0000    2.9952 -3.7813    0.0000 10.0000    0.0000 10.0000
        Q-s-hi  E-s-hi    Q-p-hi  E-p-hi    Q-d-hi  E-d-hi    Q-f-hi  E-f-hi
:EPH003:  0.2393  0.2575    0.2122  0.4001    4.5098  0.4007    0.0129  0.3938
 
                      QXX         QXY         QYY         QZZ       UP TO R
:VZZ003:             1.62252     2.49301    -1.25971    -0.36281       2.300
 
:POS004: ATOM   -4 X,Y,Z = 0.33333 0.66667 0.00000  MULT= 2  ZZ= 27.000  Co2
 
       LMMAX 28
       LM=   0 0  1 1 -1 1  2 0  2 2 -2 2  3 1 -3 1  3 3 -3 3  4 0  4 2 -4 2  4 4 -4 4  5 1 -5 1
         5 3 -5 3  5 5 -5 5  6 0  6 2 -6 2  6 4 -6 4  6 6 -6 6
 
:CHA004: TOTAL VALENCE CHARGE INSIDE SPHERE   4 =   7.9933    (RMT=  2.3000 )
:PCS004: PARTIAL CHARGES SPHERE =  4 S,P,D,F,PX,PY,PZ,D-Z2,D-X2Y2,D-XY,D-XZ,D-YZ
:QTL004: 0.2501 3.2072 4.5198 0.0128 1.0591 1.0591 1.0890 0.9115 0.9101 0.9098 0.8941 0.8942
        Q-s-low E-s-low   Q-p-low E-p-low   Q-d-low E-d-low   Q-f-low E-f-low
:EPL004:  0.0024 -1.0013    2.9959 -3.7933    0.0024 -1.2302    0.0000 10.0000
        Q-s-hi  E-s-hi    Q-p-hi  E-p-hi    Q-d-hi  E-d-hi    Q-f-hi  E-f-hi
:EPH004:  0.2484  0.2770    0.2105  0.4087    4.5174  0.3876    0.0124  0.4043
 
                      QXX         QXY         QYY         QZZ       UP TO R
:VZZ004:             1.13647     0.01466     1.11781    -2.25426       2.300
 
:POS005: ATOM   -5 X,Y,Z = 0.00000 0.00000 0.00000  MULT= 1  ZZ= 65.000  Tb1
 
       LMMAX 16
       LM=   0 0  2 0  2 2 -2 2  4 0  4 2 -4 2  4 4 -4 4  6 0  6 2 -6 2  6 4 -6 4  6 6 -6 6
 
:CHA005: TOTAL VALENCE CHARGE INSIDE SPHERE   5 =  11.0100    (RMT=  2.5000 )
:PCS005: PARTIAL CHARGES SPHERE =  5 S,P,D,F,PX,PY,PZ,D-Z2,D-X2Y2,D-XY,D-XZ,D-YZ
:QTL005: 1.0470 2.8696 0.2242 6.8674 0.9590 0.9588 0.9516 0.0302 0.0614 0.0610 0.0354 0.0357
        Q-s-low E-s-low   Q-p-low E-p-low   Q-d-low E-d-low   Q-f-low E-f-low
:EPL005:  0.9856 -2.6163    2.7793 -0.9174    0.0000 10.0000    0.0000 10.0000
        Q-s-hi  E-s-hi    Q-p-hi  E-p-hi    Q-d-hi  E-d-hi    Q-f-hi  E-f-hi
:EPH005:  0.0621  0.3436    0.0903  0.3768    0.2242  0.4315    6.8672  0.4622
 
                      QXX         QXY         QYY         QZZ       UP TO R
:VZZ005:            -2.54570    -0.27582    -2.92810     5.47377       2.500
 
:CHA  : TOTAL VALENCE CHARGE INSIDE UNIT CELL =      54.426747
 
:SUM  : SUM OF EIGENVALUES =         -47.981362159
 
:GAP (global)   :    0.0    Ry =     0.0   eV (metal)
:GAP (this spin):    0.0    Ry =     0.0   eV (metal)
         Bandranges (emin - emax) and occupancy:
:BAN00087:  87    0.536154    0.622731  1.00000000
:BAN00088:  88    0.537326    0.634886  1.00000000
:BAN00089:  89    0.566291    0.638638  1.00000000
:BAN00090:  90    0.574170    0.646509  1.00000000
:BAN00091:  91    0.575442    0.655430  0.99683213
:BAN00092:  92    0.583741    0.659830  0.97238181
:BAN00093:  93    0.614274    0.669774  0.93161623
:BAN00094:  94    0.622269    0.679056  0.80187737
:BAN00095:  95    0.624495    0.680332  0.27063272
:BAN00096:  96    0.643968    0.682493  0.02643010
:BAN00097:  97    0.651456    0.688608  0.00022971
:BAN00098:  98    0.664780    0.706977  0.00000000
:BAN00099:  99    0.670846    0.727438  0.00000000
:BAN00100: 100    0.679238    0.737463  0.00000000
:BAN00101: 101    0.685017    0.748029  0.00000000
:BAN00102: 102    0.699325    0.774771  0.00000000
        Energy to separate low and high energystates:   -0.05211


:NOE  : NUMBER OF ELECTRONS          =   94.000

:FER  : F E R M I - ENERGY(TETRAH.M.)=   0.6540552852
:GMA  : POTENTIAL AND CHARGE CUT-OFF  16.00 Ry**.5
 
:POS001: ATOM   -1 X,Y,Z = 0.50000 0.00000 0.50000  MULT= 1  ZZ= 27.000  Co1
 
       LMMAX 16
       LM=   0 0  2 0  2 2 -2 2  4 0  4 2 -4 2  4 4 -4 4  6 0  6 2 -6 2  6 4 -6 4  6 6 -6 6
 
:CHA001: TOTAL VALENCE CHARGE INSIDE SPHERE   1 =   6.1739    (RMT=  2.3000 )
:PCS001: PARTIAL CHARGES SPHERE =  1 S,P,D,F,PX,PY,PZ,D-Z2,D-X2Y2,D-XY,D-XZ,D-YZ
:QTL001: 0.2418 3.2314 2.6831 0.0131 1.0631 1.0867 1.0820 0.5806 0.5492 0.5115 0.5033 0.5386
        Q-s-low E-s-low   Q-p-low E-p-low   Q-d-low E-d-low   Q-f-low E-f-low
:EPL001:  0.0000 10.0000    2.9952 -3.5460    0.0000 10.0000    0.0000 10.0000
        Q-s-hi  E-s-hi    Q-p-hi  E-p-hi    Q-d-hi  E-d-hi    Q-f-hi  E-f-hi
:EPH001:  0.2409  0.3080    0.2366  0.4698    2.6822  0.5323    0.0130  0.5305
 
                      QXX         QXY         QYY         QZZ       UP TO R
:VZZ001:             2.05390    -1.88136    -0.12388    -1.93001       2.300
 
:POS002: ATOM   -2 X,Y,Z = 0.00000 0.50000 0.50000  MULT= 1  ZZ= 27.000  Co1
 
       LMMAX 16
       LM=   0 0  2 0  2 2 -2 2  4 0  4 2 -4 2  4 4 -4 4  6 0  6 2 -6 2  6 4 -6 4  6 6 -6 6
 
:CHA002: TOTAL VALENCE CHARGE INSIDE SPHERE   2 =   6.1739    (RMT=  2.3000 )
:PCS002: PARTIAL CHARGES SPHERE =  2 S,P,D,F,PX,PY,PZ,D-Z2,D-X2Y2,D-XY,D-XZ,D-YZ
:QTL002: 0.2417 3.2314 2.6834 0.0133 1.0986 1.0512 1.0819 0.5804 0.4937 0.5672 0.5566 0.4850
        Q-s-low E-s-low   Q-p-low E-p-low   Q-d-low E-d-low   Q-f-low E-f-low
:EPL002:  0.0000 10.0000    2.9952 -3.5460    0.0000 10.0000    0.0000 10.0000
        Q-s-hi  E-s-hi    Q-p-hi  E-p-hi    Q-d-hi  E-d-hi    Q-f-hi  E-f-hi
:EPH002:  0.2409  0.3079    0.2366  0.4698    2.6823  0.5323    0.0132  0.5308
 
                      QXX         QXY         QYY         QZZ       UP TO R
:VZZ002:            -1.23887     0.02920     3.15223    -1.91334       2.300
 
:POS003: ATOM   -3 X,Y,Z = 0.50000 0.50000 0.50000  MULT= 1  ZZ= 27.000  Co1
 
       LMMAX 16
       LM=   0 0  2 0  2 2 -2 2  4 0  4 2 -4 2  4 4 -4 4  6 0  6 2 -6 2  6 4 -6 4  6 6 -6 6
 
:CHA003: TOTAL VALENCE CHARGE INSIDE SPHERE   3 =   6.1735    (RMT=  2.3000 )
:PCS003: PARTIAL CHARGES SPHERE =  3 S,P,D,F,PX,PY,PZ,D-Z2,D-X2Y2,D-XY,D-XZ,D-YZ
:QTL003: 0.2416 3.2315 2.6826 0.0131 1.0632 1.0865 1.0818 0.5804 0.5485 0.5122 0.5033 0.5383
        Q-s-low E-s-low   Q-p-low E-p-low   Q-d-low E-d-low   Q-f-low E-f-low
:EPL003:  0.0000 10.0000    2.9952 -3.5460    0.0000 10.0000    0.0000 10.0000
        Q-s-hi  E-s-hi    Q-p-hi  E-p-hi    Q-d-hi  E-d-hi    Q-f-hi  E-f-hi
:EPH003:  0.2410  0.3079    0.2368  0.4698    2.6820  0.5323    0.0130  0.5306
 
                      QXX         QXY         QYY         QZZ       UP TO R
:VZZ003:             2.03551     1.91189    -0.10777    -1.92777       2.300
 
:POS004: ATOM   -4 X,Y,Z = 0.33333 0.66667 0.00000  MULT= 2  ZZ= 27.000  Co2
 
       LMMAX 28
       LM=   0 0  1 1 -1 1  2 0  2 2 -2 2  3 1 -3 1  3 3 -3 3  4 0  4 2 -4 2  4 4 -4 4  5 1 -5 1
         5 3 -5 3  5 5 -5 5  6 0  6 2 -6 2  6 4 -6 4  6 6 -6 6
 
:CHA004: TOTAL VALENCE CHARGE INSIDE SPHERE   4 =   6.4365    (RMT=  2.3000 )
:PCS004: PARTIAL CHARGES SPHERE =  4 S,P,D,F,PX,PY,PZ,D-Z2,D-X2Y2,D-XY,D-XZ,D-YZ
:QTL004: 0.2347 3.2263 2.9587 0.0128 1.0627 1.0623 1.1016 0.5534 0.6198 0.6200 0.5824 0.5829
        Q-s-low E-s-low   Q-p-low E-p-low   Q-d-low E-d-low   Q-f-low E-f-low
:EPL004:  0.0026 -0.8511    2.9952 -3.5576    0.0032 -1.1045    0.0000 10.0000
        Q-s-hi  E-s-hi    Q-p-hi  E-p-hi    Q-d-hi  E-d-hi    Q-f-hi  E-f-hi
:EPH004:  0.2325  0.3052    0.2297  0.4716    2.9567  0.5323    0.0128  0.5436
 
                      QXX         QXY         QYY         QZZ       UP TO R
:VZZ004:            -0.02880     0.00900    -0.02286     0.05161       2.300
 
:POS005: ATOM   -5 X,Y,Z = 0.00000 0.00000 0.00000  MULT= 1  ZZ= 65.000  Tb1
 
       LMMAX 16
       LM=   0 0  2 0  2 2 -2 2  4 0  4 2 -4 2  4 4 -4 4  6 0  6 2 -6 2  6 4 -6 4  6 6 -6 6
 
:CHA005: TOTAL VALENCE CHARGE INSIDE SPHERE   5 =   4.2706    (RMT=  2.5000 )
:PCS005: PARTIAL CHARGES SPHERE =  5 S,P,D,F,PX,PY,PZ,D-Z2,D-X2Y2,D-XY,D-XZ,D-YZ
:QTL005: 1.0423 2.8559 0.2588 0.1117 0.9534 0.9536 0.9483 0.0370 0.0635 0.0633 0.0480 0.0475
        Q-s-low E-s-low   Q-p-low E-p-low   Q-d-low E-d-low   Q-f-low E-f-low
:EPL005:  0.9824 -2.4058    2.7401 -0.7587    0.0000 10.0000    0.0000 10.0000
        Q-s-hi  E-s-hi    Q-p-hi  E-p-hi    Q-d-hi  E-d-hi    Q-f-hi  E-f-hi
:EPH005:  0.0594  0.3736    0.1157  0.4594    0.2588  0.5031    0.1116  0.5298
 
                      QXX         QXY         QYY         QZZ       UP TO R
:VZZ005:            -2.07100     0.19793    -1.83985     3.91083       2.500
 
:CHA  : TOTAL VALENCE CHARGE INSIDE UNIT CELL =      39.573250
 
:SUM  : SUM OF EIGENVALUES =         -47.664387042
 

        1.ATOM      Co1                   5 CORE STATES
:1S 001: 1S                -556.759278885 Ry
:2S 001: 2S                 -64.915703655 Ry
:2PP001: 2P*                -56.145876605 Ry
:2P 001: 2P                 -55.057746804 Ry
:3S 001: 3S                  -6.481070070 Ry

        2.ATOM      Co1                   5 CORE STATES
:1S 002: 1S                -556.759284154 Ry
:2S 002: 2S                 -64.915708928 Ry
:2PP002: 2P*                -56.145881876 Ry
:2P 002: 2P                 -55.057752075 Ry
:3S 002: 3S                  -6.481076382 Ry

        3.ATOM      Co1                   5 CORE STATES
:1S 003: 1S                -556.759278923 Ry
:2S 003: 2S                 -64.915703693 Ry
:2PP003: 2P*                -56.145876643 Ry
:2P 003: 2P                 -55.057746842 Ry
:3S 003: 3S                  -6.481070107 Ry

        4.ATOM      Co2                   5 CORE STATES
       CORE-FORCE in mRy/a.u. = |F|      Fx             Fy             Fz
:FCO004:   4.ATOM      0.014703510990     -0.014703509981     -0.000005446070      0.000000000000

:1S 004: 1S                -556.771689047 Ry
:2S 004: 2S                 -64.928210895 Ry
:2PP004: 2P*                -56.158362715 Ry
:2P 004: 2P                 -55.070235022 Ry
:3S 004: 3S                  -6.494269169 Ry

        5.ATOM      Tb1                  14 CORE STATES
:1S 005: 1S               -3806.808631355 Ry
:2S 005: 2S                -630.032852897 Ry
:2PP005: 2P*               -598.617017584 Ry
:2P 005: 2P                -543.745154422 Ry
:3S 005: 3S                -139.236532831 Ry
:3PP005: 3P*               -125.581525768 Ry
:3P 005: 3P                -114.266861657 Ry
:3DD005: 3D*                -90.755306420 Ry
:3D 005: 3D                 -88.287972324 Ry
:4S 005: 4S                 -27.124789415 Ry
:4PP005: 4P*                -21.776812164 Ry
:4P 005: 4P                 -19.245848752 Ry
:4DD005: 4D*                -10.441240300 Ry
:4D 005: 4D                  -9.982302509 Ry

        1.ATOM      Co1                   5 CORE STATES
:1S 001: 1S                -556.759484412 Ry
:2S 001: 2S                 -64.804032270 Ry
:2PP001: 2P*                -56.063336812 Ry
:2P 001: 2P                 -54.972609348 Ry
:3S 001: 3S                  -6.240222185 Ry

        2.ATOM      Co1                   5 CORE STATES
:1S 002: 1S                -556.759489681 Ry
:2S 002: 2S                 -64.804037542 Ry
:2PP002: 2P*                -56.063342083 Ry
:2P 002: 2P                 -54.972614619 Ry
:3S 002: 3S                  -6.240225749 Ry

        3.ATOM      Co1                   5 CORE STATES
:1S 003: 1S                -556.759484450 Ry
:2S 003: 2S                 -64.804032308 Ry
:2PP003: 2P*                -56.063336850 Ry
:2P 003: 2P                 -54.972609386 Ry
:3S 003: 3S                  -6.240222222 Ry

        4.ATOM      Co2                   5 CORE STATES
       CORE-FORCE in mRy/a.u. = |F|      Fx             Fy             Fz
:FCO004:   4.ATOM      0.013372301974     -0.013372300871     -0.000005429020      0.000000000000

:1S 004: 1S                -556.771892856 Ry
:2S 004: 2S                 -64.816524079 Ry
:2PP004: 2P*                -56.075810329 Ry
:2P 004: 2P                 -54.985084688 Ry
:3S 004: 3S                  -6.253318123 Ry

        5.ATOM      Tb1                  14 CORE STATES
:1S 005: 1S               -3806.808616444 Ry
:2S 005: 2S                -630.027319462 Ry
:2PP005: 2P*               -598.613784470 Ry
:2P 005: 2P                -543.740701935 Ry
:3S 005: 3S                -139.063680477 Ry
:3PP005: 3P*               -125.425696513 Ry
:3P 005: 3P                -114.087343855 Ry
:3DD005: 3D*                -90.626274019 Ry
:3D 005: 3D                 -88.152920673 Ry
:4S 005: 4S                 -26.731626289 Ry
:4PP005: 4P*                -21.384237594 Ry
:4P 005: 4P                 -18.858073600 Ry
:4DD005: 4D*                -10.055550044 Ry
:4D 005: 4D                  -9.598394838 Ry
:CINT001 Core Integral Atom   1 Up    5.99960901 Dn   5.999565 Total  11.99917441
:CINT002 Core Integral Atom   2 Up    5.99960879 Dn   5.999566 Total  11.99917455
:CINT003 Core Integral Atom   3 Up    5.99960901 Dn   5.999565 Total  11.99917441
:CINT004 Core Integral Atom   4 Up    5.99960861 Dn   5.999566 Total  11.99917431
:CINT005 Core Integral Atom   5 Up   22.99997624 Dn  22.999972 Total  45.99994860

       DENSITY AT NUCLEUS
        JATOM        VALENCE       SEMI-CORE          CORE           TOTAL
:RTO001:   1        8.626333        0.000000    17495.961944    17504.588277
:RTO002:   2        8.626391        0.000000    17495.962004    17504.588395
:RTO003:   3        8.629330        0.000000    17495.961944    17504.591274
:RTO004:   4        8.741377        0.000000    17495.942580    17504.683957
:RTO005:   5     1230.071282        0.000000  1219623.699687  1220853.770969

       HYPERFINE FIELDS FOR THOMSON RADIUS
:HFF001:           19.585           0.000        -362.596        -343.011 (KGAUSS)
:HFF002:           19.644           0.000        -362.703        -343.059 (KGAUSS)
:HFF003:           20.974           0.000        -362.596        -341.622 (KGAUSS)
:HFF004:          170.131           0.000        -363.493        -193.362 (KGAUSS)
:HFF005:         2437.029           0.000       -2547.920        -110.891 (KGAUSS)
:K-LIST:Reduced k-vector list    19745    2293
     
       CHARGES OF NEW CHARGE DENSITY
:NTO   : INTERSTITIAL      UP =     3.505137 DN =     3.908614 TOT =     7.413751
:NPC   : INTERSTITIAL      UP =    10.883055 DN =    10.120390 TOT =    21.003445
:NTO001: CHARGE SPHERE   1 UP =   13.974398 DN =   12.173494 TOT =   26.147892
:NTO002: CHARGE SPHERE   2 UP =   13.974505 DN =   12.173496 TOT =   26.148001
:NTO003: CHARGE SPHERE   3 UP =   13.974975 DN =   12.172992 TOT =   26.147967
:NTO004: CHARGE SPHERE   4 UP =   13.992814 DN =   12.435901 TOT =   26.428716
:NTO005: CHARGE SPHERE   5 UP =   34.010125 DN =   27.270652 TOT =   61.280777

:NEC01: NUCLEAR AND ELECTRONIC CHARGE    200.00000000   199.99582068 Plane Wave
     
       CHARGES OF OLD CHARGE DENSITY
:OTO   : INTERSTITIAL      UP =     4.000058 DN =     3.298366 TOT =     7.298424
:OPC   : INTERSTITIAL      UP =    14.090380 DN =     3.648753 TOT =    17.739133
:OTO001: CHARGE SPHERE   1 UP =   14.474701 DN =   11.521584 TOT =   25.996285
:OTO002: CHARGE SPHERE   2 UP =   14.474698 DN =   11.521582 TOT =   25.996280
:OTO003: CHARGE SPHERE   3 UP =   14.474701 DN =   11.521584 TOT =   25.996285
:OTO004: CHARGE SPHERE   4 UP =   14.477810 DN =   11.516740 TOT =   25.994549
:OTO005: CHARGE SPHERE   5 UP =   34.620218 DN =   28.119049 TOT =   62.739267

:NEC02: NUCLEAR AND ELECTRONIC CHARGE    200.00000000   200.01563939 Total

:VSOld: Total Rescaling   0.99992181
     
       CONVERGENCE TEST
:DTO001: DIFFERENCE SPHERE  1 UP =  0.6231997 DN =  0.5685939 TOT =  1.1917936
:DTO002: DIFFERENCE SPHERE  2 UP =  0.6230720 DN =  0.5686050 TOT =  1.1916770
:DTO003: DIFFERENCE SPHERE  3 UP =  0.6227507 DN =  0.5680248 TOT =  1.1907755
:DTO004: DIFFERENCE SPHERE  4 UP =  0.6114235 DN =  0.8907998 TOT =  1.5022233
:DTO005: DIFFERENCE SPHERE  5 UP =  0.3798639 DN =  1.4442201 TOT =  1.8240840

:DIS  :  CHARGE DISTANCE      (  1.4442201 for atom    5 spin 2)      2.8009256
 
******************************************************
* Multisecant Mixing Release 10.8.9                  *
* Standard Mode with step bound                      *
* Multisecant MSR1 Algorithm                         *
* Regularization       2.000E-04                     *
* Minimum Greed        1.000E-03                     *
* Max Number of Memory Steps    8                    *
******************************************************
 

:FULLRMS/Atom   1.4948963368
:PLANE:  PW /ATOM     0.98107 DISTAN   7.28E-01 %  7.42E+01
:CHARG:  CLM/ATOM   260.59532 DISTAN   7.37E-01 %  2.83E-01

Step History
        Dmix         Dmixt        Red     Pred      Step      Lambda    MagAbs    Beta
  1   3.5000E-01   3.5000E-01  1.00E+00  1.00E+00  1.00E-01  1.00E+00  1.28E-01  1.00E+00
:NOTE :  :INFO: Pratt in use
:TRUST:  Step  1.0E-01 Charge  3.3E-02 (e) CTO  2.2E-01 (e) PW  2.0E-01 (e)
:DIRP : |PRAT|= 6.557E-03 |PRATT|= 2.573E+00 ANGLE=   0.0 DEGREES
:DIRQ : |PRAT|= 6.641E-03 |PRATT|= 2.606E+00 ANGLE=   0.0 DEGREES
:DIRT : |PRAT|= 9.333E-03 |PRATT|= 3.662E+00 ANGLE=   0.0 DEGREES
  
:INFO: Pseudo Compensation for mesh of   64
  
:INFO: Pseudo Compensation Rescaling     9.99092E-01
  
:INFO: Pseudo Compensation Rescaling     1.00216E+00
  
:MIX  :  PRATT  REGULARIZATION:  2.00E-04 GREED: 0.00255                 
     
       CHARGES OF MIXED CHARGE DENSITY
:CTO   : INTERSTITIAL      UP =     3.998489 DN =     3.299670 TOT =     7.298159
:CPC   : INTERSTITIAL      UP =    12.439444 DN =     6.245169 TOT =    18.684613
:CTO001: CHARGE SPHERE   1 UP =   14.472297 DN =   11.522347 TOT =   25.994644
:CTO002: CHARGE SPHERE   2 UP =   14.472294 DN =   11.522345 TOT =   25.994640
:CTO003: CHARGE SPHERE   3 UP =   14.472299 DN =   11.522345 TOT =   25.994644
:CTO004: CHARGE SPHERE   4 UP =   14.475444 DN =   11.518184 TOT =   25.993628
:CTO005: CHARGE SPHERE   5 UP =   34.615963 DN =   28.114694 TOT =   62.730656

       SPIN MAGNETIC MOMENTS OF MIXED CHARGE DENSITY
:MMINT:  MAGNETIC MOMENT IN INTERSTITIAL  =    0.69882
:MMI001: MAGNETIC MOMENT IN SPHERE   1    =    2.94995
:MMI002: MAGNETIC MOMENT IN SPHERE   2    =    2.94995
:MMI003: MAGNETIC MOMENT IN SPHERE   3    =    2.94995
:MMI004: MAGNETIC MOMENT IN SPHERE   4    =    2.95726
:MMI005: MAGNETIC MOMENT IN SPHERE   5    =    6.50127
:MMTOT:  SPIN MAGNETIC MOMENT IN CELL     =   21.96446

:NEC03: NUCLEAR AND ELECTRONIC CHARGE    200.00000000   200.00000000

PW CHANGE     H    K    L      Current       Change    Residue
:PUP001:      0    0    0  2.88163473E-02 -2.894E-03 -6.473E-03
:PUP002:     -1    0    0  9.34804896E-04  3.388E-03  4.434E-03
:PUP003:     -1    1    0  9.35055732E-04  3.389E-03  4.438E-03
:PUP004:      0   -1    0  9.34601277E-04  3.388E-03  4.433E-03
:PUP005:      0    0   -1  5.16051769E-03  2.147E-03  3.334E-03
:PUP006:     -1    0   -1  6.26236222E-03  8.308E-04  1.488E-03
:PUP007:     -1    0    1  6.26235890E-03  8.308E-04  1.487E-03
:PUP008:     -1    1   -1  6.26217987E-03  8.306E-04  1.488E-03
:PUP009:     -1    1    1  6.26217637E-03  8.306E-04  1.486E-03
:PUP010:      0   -1   -1  6.26253475E-03  8.310E-04  1.487E-03
:PUP011:      0   -1    1  6.26253511E-03  8.310E-04  1.488E-03
:PUP012:     -2    1    0  6.30949211E-03 -2.191E-04 -5.887E-05
  
:PDN001:      0    0    0  1.67324789E-02  4.555E-03  1.243E-02
:PDN002:     -1    0    0  2.05763348E-03  3.200E-03  3.561E-03
:PDN003:     -1    1    0  2.05768180E-03  3.200E-03  3.561E-03
:PDN004:      0   -1    0  2.05793016E-03  3.200E-03  3.561E-03
:PDN005:      0    0   -1  3.86119679E-03  3.836E-03  6.395E-03
:PDN006:     -1    0   -1  3.83375679E-03  3.771E-03  6.612E-03
:PDN007:     -1    0    1  3.83375695E-03  3.771E-03  6.612E-03
:PDN008:     -1    1   -1  3.83370378E-03  3.771E-03  6.612E-03
:PDN009:     -1    1    1  3.83370406E-03  3.771E-03  6.612E-03
:PDN010:      0   -1   -1  3.83350216E-03  3.771E-03  6.611E-03
:PDN011:      0   -1    1  3.83350232E-03  3.771E-03  6.611E-03
:PDN012:     -2    1    0  3.36235988E-03  3.783E-03  6.573E-03

:ENE  : ********** TOTAL ENERGY IN Ry =       -37373.17298148

:FOR001:   1.ATOM          0.000          0.000          0.000          0.000 partial forces
:FOR002:   2.ATOM          0.000          0.000          0.000          0.000 partial forces
:FOR003:   3.ATOM          0.000          0.000          0.000          0.000 partial forces
:FOR004:   4.ATOM          0.026          0.026          0.000          0.000 partial forces
:FOR005:   5.ATOM          0.000          0.000          0.000          0.000 partial forces
       TOTAL FORCE WITH RESPECT TO THE GLOBAL COORDINATE SYSTEM:
:FGL001:   1.ATOM                 0.000000000     0.000000000     0.000000000 partial forces
:FGL002:   2.ATOM                 0.000000000     0.000000000     0.000000000 partial forces
:FGL003:   3.ATOM                 0.000000000     0.000000000     0.000000000 partial forces
:FGL004:   4.ATOM                 0.030339223     0.015179756     0.000000000 partial forces
:FGL005:   5.ATOM                 0.000000000     0.000000000     0.000000000 partial forces
 Euler-Maclaurian Coulomb
 Consistent 3/8+Simpson combinations at start/end
 New Mode for Coulomb Integral
 Extension of core to zero
 LDM version in phi
 Fifth-order quadrature in outwin
 Lebedev-Laikov Grid in lapw0


            ---------
:ITE002:  2. ITERATION
            ---------

:NATO :    5 INDEPENDENT AND    6 TOTAL ATOMS IN UNITCELL
       SUBSTANCE: blebleble                                s-o calc. M||  0.10

       LATTICE                      = H   
:LAT  : LATTICE CONSTANTS=  9.34658  9.34658  7.54001
:VOL  : UNIT CELL VOLUME =     570.43781
:POT  : POTENTIAL OPTION EX_PBE EC_PBE VX_PBE VC_PBE
       MODE OF CALCULATION IS       = RELA
       SPINPOLARIZED CALCULATION
:IFFT  : FFT-parameters:   96   96   80 Factor: 2.00


   CONVERGENCE PARAMETER FOR PSEUDOCHARGE: NCON=  9
   MAXIMAL VALUE OF RMT(JATOM)*ABSK(NKK) : RK  =39.99508


:VKCOUL :  VK-COUL convergence: 0.102E-09
 Lebedev grid of          350
 :rho_min:   2.0000000000000000E-008   1.0000000000000001E-009
:VCOUL001 ATOMNUMBER=  1 Co1     VCOUL-ZERO =  0.50704E+00
:EFG001:                        EFG         =    -0.12754   *10**21  V / m**2
                               V20  TOT/SRF=     0.01704     0.03235
                               V22  TOT/SRF=    -0.05876    -0.12300
                               V22M TOT/SRF=     0.10199     0.21309
                               V21  TOT/SRF=     0.00000     0.00000
                               V21M TOT/SRF=     0.00000     0.00000

             -0.06860    0.10199    0.00000       -0.12754    0.00000    0.00000
              0.10199    0.04893    0.00000        0.00000    0.10787    0.00000
              0.00000    0.00000    0.01967        0.00000    0.00000    0.01967

         MAIN DIRECTIONS OF THE EFG   1.0000  0.5779  0.0000
                                     -0.5779  1.0000  0.0000
                                     -0.0000 -0.0000  1.0000
:ANG001:  ANGLE WITH OLD X-AXIS =        30.0

:ETA001:                         ASYMM. ETA =     0.69154


:VCOUL002 ATOMNUMBER=  2 Co1     VCOUL-ZERO =  0.50704E+00
:EFG002:                        EFG         =    -0.12753   *10**21  V / m**2
                               V20  TOT/SRF=     0.01706     0.03234
                               V22  TOT/SRF=     0.11768     0.24606
                               V22M TOT/SRF=     0.00015     0.00000
                               V21  TOT/SRF=     0.00000     0.00000
                               V21M TOT/SRF=     0.00000     0.00000

              0.10783    0.00015    0.00000        0.10783    0.00000    0.00000
              0.00015   -0.12753    0.00000        0.00000   -0.12753    0.00000
              0.00000    0.00000    0.01970        0.00000    0.00000    0.01970

         MAIN DIRECTIONS OF THE EFG   1.0000 -0.0006  0.0000
                                      0.0006  1.0000  0.0000
                                      0.0000  0.0000  1.0000
:ANG002:  ANGLE WITH OLD X-AXIS =         0.0

:ETA002:                         ASYMM. ETA =     0.69110


:VCOUL003 ATOMNUMBER=  3 Co1     VCOUL-ZERO =  0.50704E+00
:EFG003:                        EFG         =    -0.12747   *10**21  V / m**2
                               V20  TOT/SRF=     0.01702     0.03235
                               V22  TOT/SRF=    -0.05886    -0.12300
                               V22M TOT/SRF=    -0.10186    -0.21309
                               V21  TOT/SRF=     0.00000     0.00000
                               V21M TOT/SRF=     0.00000     0.00000

             -0.06869   -0.10186    0.00000       -0.12747    0.00000    0.00000
             -0.10186    0.04904    0.00000        0.00000    0.10782    0.00000
              0.00000    0.00000    0.01965        0.00000    0.00000    0.01965

         MAIN DIRECTIONS OF THE EFG   1.0000 -0.5771  0.0000
                                      0.5771  1.0000  0.0000
                                     -0.0000 -0.0000  1.0000
:ANG003:  ANGLE WITH OLD X-AXIS =        30.0

:ETA003:                         ASYMM. ETA =     0.69172


:VCOUL004 ATOMNUMBER=  4 Co2     VCOUL-ZERO =  0.49190E+00
:EFG004:                        EFG         =     0.06081   *10**21  V / m**2
                               V20  TOT/SRF=     0.05266     0.14266
                               V22  TOT/SRF=     0.00001    -0.00000
                               V22M TOT/SRF=     0.00006     0.00000
                               V21  TOT/SRF=     0.00000     0.00000
                               V21M TOT/SRF=     0.00000     0.00000

             -0.03039    0.00006    0.00000       -0.03034    0.00000    0.00000
              0.00006   -0.03042    0.00000        0.00000   -0.03047    0.00000
              0.00000    0.00000    0.06081        0.00000    0.00000    0.06081

         MAIN DIRECTIONS OF THE EFG   1.0000 -0.7978  0.0000
                                      0.7978  1.0000  0.0000
                                      0.0000  0.0000  1.0000
:ANG004:  ANGLE WITH OLD X-AXIS =        38.6

:ETA004:                         ASYMM. ETA =     0.00204


:VCOUL005 ATOMNUMBER=  5 Tb1     VCOUL-ZERO =  0.42538E+00
:EFG005:                        EFG         =    -0.03514   *10**21  V / m**2
                               V20  TOT/SRF=    -0.03043    -0.10030
                               V22  TOT/SRF=     0.00018    -0.00000
                               V22M TOT/SRF=    -0.00020    -0.00000
                               V21  TOT/SRF=     0.00000     0.00000
                               V21M TOT/SRF=     0.00000     0.00000

              0.01775   -0.00020    0.00000        0.01784    0.00000    0.00000
             -0.00020    0.01739    0.00000        0.00000    0.01730    0.00000
              0.00000    0.00000   -0.03514        0.00000    0.00000   -0.03514

         MAIN DIRECTIONS OF THE EFG   1.0000  0.4379  0.0000
                                     -0.4379  1.0000  0.0000
                                      0.0000  0.0000  1.0000
:ANG005:  ANGLE WITH OLD X-AXIS =        23.6

:ETA005:                         ASYMM. ETA =     0.01541


     HELLMANN-FEYNMAN-FORCE IN mRy/a.u. = |F|  Fx       Fy             Fz
:FHF001:   1.ATOM      0.000000000000      0.000000000000      0.000000000000      0.000000000000

     HELLMANN-FEYNMAN-FORCE IN mRy/a.u. = |F|  Fx       Fy             Fz
:FHF002:   2.ATOM      0.000000000000      0.000000000000      0.000000000000      0.000000000000

     HELLMANN-FEYNMAN-FORCE IN mRy/a.u. = |F|  Fx       Fy             Fz
:FHF003:   3.ATOM      0.000000000000      0.000000000000      0.000000000000      0.000000000000

     HELLMANN-FEYNMAN-FORCE IN mRy/a.u. = |F|  Fx       Fy             Fz
:FHF004:   4.ATOM      0.046421434091      0.045166051062     -0.010722750323      0.000000000000

     HELLMANN-FEYNMAN-FORCE IN mRy/a.u. = |F|  Fx       Fy             Fz
:FHF005:   5.ATOM      0.000000000000      0.000000000000      0.000000000000      0.000000000000

:FIT001: LUSE= 13 SIGMA OF V-XC FIT FOR ATOM  1  0.7043789E-03
:FIT001: LUSE= 13 SIGMA OF V-XC FIT FOR ATOM  1  0.9955480E-03
:FIT002: LUSE= 13 SIGMA OF V-XC FIT FOR ATOM  2  0.5558459E-03
:FIT002: LUSE= 13 SIGMA OF V-XC FIT FOR ATOM  2  0.1020568E-02
:FIT003: LUSE= 13 SIGMA OF V-XC FIT FOR ATOM  3  0.7043743E-03
:FIT003: LUSE= 13 SIGMA OF V-XC FIT FOR ATOM  3  0.9955454E-03
:FIT004: LUSE= 13 SIGMA OF V-XC FIT FOR ATOM  4  0.7002135E-03
:FIT004: LUSE= 13 SIGMA OF V-XC FIT FOR ATOM  4  0.8049117E-03
:FIT005: LUSE= 13 SIGMA OF V-XC FIT FOR ATOM  5  0.3588414E-03
:FIT005: LUSE= 13 SIGMA OF V-XC FIT FOR ATOM  5  0.5525468E-03
:DEN  : DENSITY INTEGRAL  =        -14928.95571871   (Ry)
       ELS_POTENTIAL_AT Z=0 and Z=0.5:  -0.76803  -0.36543
       ELS_POTENTIAL_AT Y=0 and Y=0.5:  -0.43285  -0.31107
:VZERO:v0,v0c,v0x  -1.66371  -0.76803  -0.89567 v5,v5c,v5x  -1.18585  -0.36543  -0.82042
:VZERY:v0,v0c,v0x  -1.27574  -0.43285  -0.84289 v5,v5c,v5x  -1.18516  -0.31107  -0.87410
:VZERX:v0,v0c,v0x  -1.27574  -0.43285  -0.84289 v5,v5c,v5x  -1.18514  -0.31104  -0.87410
 :INFO: VX.gt.+1.0   1.3193697483304028       rho   5.9484429403836858E-003
:LMAX-WF:   10   Non-Spherical LMAX:   6

          ATOMIC SPHERE DEPENDENT PARAMETERS FOR ATOM  Co1       
:e__0001: OVERALL ENERGY PARAMETER IS    0.4027
          OVERALL BASIS SET ON ATOM IS LAPW
:E1_0001: E( 1)=    0.4027
             APW+lo
:E1_0001: E( 1)=   -3.8314   E(BOTTOM)=   -3.867   E(TOP)=   -3.796  1  2   172
             LOCAL ORBITAL
:E2_0001: E( 2)=    0.3373   E(BOTTOM)=    0.100   E(TOP)=    0.575  0  1   125
             APW+lo
:E0_0001: E( 0)=    0.4027
             APW+lo

          ATOMIC SPHERE DEPENDENT PARAMETERS FOR ATOM  Co1       
:e__0002: OVERALL ENERGY PARAMETER IS    0.4027
          OVERALL BASIS SET ON ATOM IS LAPW
:E1_0002: E( 1)=    0.4027
             APW+lo
:E1_0002: E( 1)=   -3.8314   E(BOTTOM)=   -3.867   E(TOP)=   -3.796  1  2   174
             LOCAL ORBITAL
:E2_0002: E( 2)=    0.3373   E(BOTTOM)=    0.100   E(TOP)=    0.575  0  1   126
             APW+lo
:E0_0002: E( 0)=    0.4027
             APW+lo

          ATOMIC SPHERE DEPENDENT PARAMETERS FOR ATOM  Co1       
:e__0003: OVERALL ENERGY PARAMETER IS    0.4027
          OVERALL BASIS SET ON ATOM IS LAPW
:E1_0003: E( 1)=    0.4027
             APW+lo
:E1_0003: E( 1)=   -3.8314   E(BOTTOM)=   -3.867   E(TOP)=   -3.796  1  2   175
             LOCAL ORBITAL
:E2_0003: E( 2)=    0.3373   E(BOTTOM)=    0.100   E(TOP)=    0.575  0  1   121
             APW+lo
:E0_0003: E( 0)=    0.4027
             APW+lo

          ATOMIC SPHERE DEPENDENT PARAMETERS FOR ATOM  Co2       
:e__0004: OVERALL ENERGY PARAMETER IS    0.4027
          OVERALL BASIS SET ON ATOM IS LAPW
:E1_0004: E( 1)=    0.4027
             APW+lo
:E1_0004: E( 1)=   -3.8439   E(BOTTOM)=   -3.879   E(TOP)=   -3.809  1  2   170
             LOCAL ORBITAL
:E2_0004: E( 2)=    0.3244   E(BOTTOM)=    0.087   E(TOP)=    0.562  0  1   124
             APW+lo
:E0_0004: E( 0)=    0.4027
             APW+lo

          ATOMIC SPHERE DEPENDENT PARAMETERS FOR ATOM  Tb1       
:e__0005: OVERALL ENERGY PARAMETER IS    0.4027
          OVERALL BASIS SET ON ATOM IS LAPW
:E0_0005: E( 0)=    0.4027
             APW+lo
:E0_0005: E( 0)=   -2.7007   E(BOTTOM)=   -2.896   E(TOP)=   -2.505  4  5   179
             LOCAL ORBITAL
:E1_0005: E( 1)=    0.8027
             APW+lo
:E1_0005: E( 1)=   -0.9830   E(BOTTOM)=   -1.415   E(TOP)=   -0.551  3  4   175
             LOCAL ORBITAL
:E3_0005: E( 3)=    0.3967   E(BOTTOM)=    0.334   E(TOP)=    0.459  0  1   110
             APW+lo
:E2_0005: E( 2)=    0.4027   E(BOTTOM)=    0.362   E(TOP)= -520.000  2 -1    86
             APW+lo

       K=  0.031250  0.031250  0.029412            1
:RKM  : MATRIX SIZE   653LOs:  80  RKM= 9.00  WEIGHT= 2.00  PGR:    
       EIGENVALUES ARE:
:EIG00001:      -3.8458959   -3.8400964   -3.8384103   -3.8358853   -3.8358497
:EIG00006:      -3.8355177   -3.8354989   -3.8255393   -3.8254648   -3.8242338
:EIG00011:      -3.8241981   -3.8203168   -3.8173611   -3.8173025   -3.8140995
:EIG00016:      -2.6657128   -0.9638272   -0.9637449   -0.9383392   -0.0406597
:EIG00021:       0.1654404    0.2454099    0.2472448    0.2476357    0.2518850
:EIG00026:       0.2531938    0.2686293    0.2691640    0.2808822    0.2865938
:EIG00031:       0.3155080    0.3161533    0.3512152    0.3518770    0.3761015
:EIG00036:       0.3879298    0.3882245    0.3980107    0.4058495    0.4088489
:EIG00041:       0.4095803    0.4097424    0.4120357    0.4125864    0.4144952
:EIG00046:       0.4147094    0.4165845    0.4246727    0.4247941    0.4769417

:EIG00051:       0.4796964    0.4884788    0.5813887    0.6384213    0.6451606
:EIG00056:       0.6664651    0.7334003    0.7609393    0.7752317    0.9488765
:EIG00061:       0.9517889    1.1450009    1.2156582    1.2196063    1.3027377
:EIG00066:       1.3318804    1.3751236    1.3792147    1.4191348    1.4482727
:EIG00071:       1.4592662    1.5939146    1.6083599    1.7017995    1.7040248
:EIG00076:       1.8586765    1.8700224    2.0656298    2.0723410    2.2151882
:EIG00081:       2.2704858    2.2853128    2.2898356    2.3308727    2.3454518
:EIG00086:       2.3671910    2.4073209    2.4299822    2.4756232    2.4765602
:EIG00091:       2.6383244    2.7405996    2.7490223    2.8121094    2.8753603
:EIG00096:       2.9115649    2.9260970    2.9343337    2.9469487    2.9734416

:EIG00101:       2.9926880    3.0147007    3.1032669    3.1168069    3.1888168
:EIG00106:       3.2144078    3.2331021    3.2445498    3.3270561    3.3296697
:EIG00111:       3.3947852    3.4543396    3.4725969    3.5337085    3.5376285
:EIG00116:       3.5720082    3.6240369    3.6837566    3.7030666    3.7467748
:EIG00121:       3.7512619    3.8049981    3.9631231    3.9976673    4.0271461
:EIG00126:       4.0291726    4.0783809    4.1276521    4.1738034    4.2189558
:EIG00131:       4.2928489    4.2991773    4.3543276    4.3789675    4.3862741
:EIG00136:       4.4083712    4.4155156    4.4302771    4.5451962    4.5503716
:EIG00141:       4.5652230    4.5757209    4.6200322    4.6453457    4.6916673
:EIG00146:       4.6993630    4.7469924    4.7646562    4.7789520    4.7876899

:EIG00151:       4.8006437    4.8537401    4.8638179    4.9142449    4.9267598
:EIG00156:       4.9709647    5.0014834    5.0126056    5.0637531    5.1268126
:EIG00161:       5.1338233    5.1566729    5.1901224    5.2588325    5.3019530
:EIG00166:       5.3115540    5.3584456    5.4215084    5.4291381    5.4315425
:EIG00171:       5.5792061
       ********************************************************

:KPT   :      NUMBER OF K-POINTS:    2176
:LMAX-WF:   10   Non-Spherical LMAX:   6

          ATOMIC SPHERE DEPENDENT PARAMETERS FOR ATOM  Co1       
:e__0001: OVERALL ENERGY PARAMETER IS    0.4027
          OVERALL BASIS SET ON ATOM IS LAPW
:E1_0001: E( 1)=    0.4027
             APW+lo
:E1_0001: E( 1)=   -3.5970   E(BOTTOM)=   -3.635   E(TOP)=   -3.559  1  2   200
             LOCAL ORBITAL
:E2_0001: E( 2)=    0.5460   E(BOTTOM)=    0.282   E(TOP)=    0.810  0  1   135
             APW+lo
:E0_0001: E( 0)=    0.4027
             APW+lo

          ATOMIC SPHERE DEPENDENT PARAMETERS FOR ATOM  Co1       
:e__0002: OVERALL ENERGY PARAMETER IS    0.4027
          OVERALL BASIS SET ON ATOM IS LAPW
:E1_0002: E( 1)=    0.4027
             APW+lo
:E1_0002: E( 1)=   -3.5970   E(BOTTOM)=   -3.635   E(TOP)=   -3.559  1  2   200
             LOCAL ORBITAL
:E2_0002: E( 2)=    0.5460   E(BOTTOM)=    0.282   E(TOP)=    0.810  0  1   129
             APW+lo
:E0_0002: E( 0)=    0.4027
             APW+lo

          ATOMIC SPHERE DEPENDENT PARAMETERS FOR ATOM  Co1       
:e__0003: OVERALL ENERGY PARAMETER IS    0.4027
          OVERALL BASIS SET ON ATOM IS LAPW
:E1_0003: E( 1)=    0.4027
             APW+lo
:E1_0003: E( 1)=   -3.5970   E(BOTTOM)=   -3.635   E(TOP)=   -3.559  1  2   197
             LOCAL ORBITAL
:E2_0003: E( 2)=    0.5460   E(BOTTOM)=    0.282   E(TOP)=    0.810  0  1   132
             APW+lo
:E0_0003: E( 0)=    0.4027
             APW+lo

          ATOMIC SPHERE DEPENDENT PARAMETERS FOR ATOM  Co2       
:e__0004: OVERALL ENERGY PARAMETER IS    0.4027
          OVERALL BASIS SET ON ATOM IS LAPW
:E1_0004: E( 1)=    0.4027
             APW+lo
:E1_0004: E( 1)=   -3.6094   E(BOTTOM)=   -3.647   E(TOP)=   -3.571  1  2   192
             LOCAL ORBITAL
:E2_0004: E( 2)=    0.5333   E(BOTTOM)=    0.269   E(TOP)=    0.798  0  1   129
             APW+lo
:E0_0004: E( 0)=    0.4027
             APW+lo

          ATOMIC SPHERE DEPENDENT PARAMETERS FOR ATOM  Tb1       
:e__0005: OVERALL ENERGY PARAMETER IS    0.4027
          OVERALL BASIS SET ON ATOM IS LAPW
:E0_0005: E( 0)=    0.4027
             APW+lo
:E0_0005: E( 0)=   -2.4915   E(BOTTOM)=   -2.704   E(TOP)=   -2.279  4  5   197
             LOCAL ORBITAL
:E1_0005: E( 1)=    0.8027
             APW+lo
:E1_0005: E( 1)=   -0.8143   E(BOTTOM)=   -1.273   E(TOP)=   -0.356  3  4   191
             LOCAL ORBITAL
:E3_0005: E( 3)=    0.7382   E(BOTTOM)=    0.657   E(TOP)=    0.819  0  1   132
             APW+lo
:E2_0005: E( 2)=    0.4645   E(BOTTOM)=    0.465   E(TOP)= -520.000  2 -1    82
             APW+lo

       K=  0.031250  0.031250  0.029412            1
:RKM  : MATRIX SIZE   653LOs:  80  RKM= 9.00  WEIGHT= 2.00  PGR:    
       EIGENVALUES ARE:
:EIG00001:      -3.6121764   -3.6061420   -3.6039402   -3.6009462   -3.6009114
:EIG00006:      -3.6006286   -3.6006051   -3.5904727   -3.5903936   -3.5891881
:EIG00011:      -3.5891433   -3.5845057   -3.5818196   -3.5817509   -3.5784213
:EIG00016:      -2.4552475   -0.8053825   -0.8052618   -0.7759992    0.0088065
:EIG00021:       0.3081629    0.3610788    0.3698635    0.4038215    0.4175078
:EIG00026:       0.4176796    0.4217478    0.4241874    0.4492606    0.4496586
:EIG00031:       0.4992007    0.4998477    0.5346293    0.5359511    0.5823108
:EIG00036:       0.5927599    0.5931754    0.6154295    0.6154870    0.6281566
:EIG00041:       0.6375161    0.6377546    0.6571507    0.6859896    0.7046009
:EIG00046:       0.7119674    0.7126899    0.7349615    0.7386194    0.7474363

:EIG00051:       0.7544406    0.7545566    0.7747161    0.7785650    0.7927732
:EIG00056:       0.8185146    0.8340936    0.8486953    0.8861249    1.0538943
:EIG00061:       1.0565801    1.2580166    1.3175534    1.3230376    1.3911338
:EIG00066:       1.4134512    1.4556877    1.4585547    1.4846152    1.5376356
:EIG00071:       1.5449900    1.6643642    1.6838802    1.7521443    1.7617228
:EIG00076:       1.9204079    1.9313341    2.1461387    2.1518478    2.2780188
:EIG00081:       2.3011364    2.3152420    2.3306047    2.3783115    2.3967218
:EIG00086:       2.4185632    2.4615768    2.4862744    2.5331447    2.5332899
:EIG00091:       2.6697053    2.7852471    2.7959715    2.8389652    2.9311262
:EIG00096:       2.9648841    2.9993349    3.0070822    3.0171746    3.0206582

:EIG00101:       3.0517764    3.0619741    3.1360090    3.1495793    3.2347269
:EIG00106:       3.2619537    3.2639910    3.2797261    3.3751451    3.3781363
:EIG00111:       3.4413178    3.4984110    3.5234556    3.5795498    3.5850474
:EIG00116:       3.6170513    3.6746300    3.7290802    3.7546056    3.8019569
:EIG00121:       3.8025369    3.8621624    4.0033153    4.0546098    4.0791063
:EIG00126:       4.0818732    4.1149513    4.1668491    4.2247593    4.2896506
:EIG00131:       4.3420537    4.3486189    4.3991886    4.4252594    4.4313190
:EIG00136:       4.4562241    4.4766993    4.4797731    4.5964671    4.6005975
:EIG00141:       4.6081175    4.6195063    4.6657291    4.6896335    4.7258111
:EIG00146:       4.7340653    4.7769955    4.8004399    4.8092432    4.8239342

:EIG00151:       4.8373889    4.8950604    4.9084257    4.9599503    4.9727175
:EIG00156:       5.0162185    5.0375677    5.0496678    5.1175980    5.1694630
:EIG00161:       5.1792246    5.2109558    5.2383858    5.3067229    5.3641456
:EIG00166:       5.3760499    5.4053671    5.4675775    5.4866112    5.4972585
       ********************************************************

:KPT   :      NUMBER OF K-POINTS:    2176
  Potential not averaged when calculating dV/dr
  60.0 -30.0 angle (M,z), angle (M,x) deg

        SPIN-ORBIT EIGENVALUES:
     K=  0.031250  0.031250  0.029412            1
      MATRIX SIZE=  341   WEIGHT= 2.00
     EIGENVALUES ARE:
          -3.8966271   -3.8954309   -3.8866334   -3.8825781   -3.8783931
          -3.8557370   -3.8554224   -3.8487398   -3.8407358   -3.8380670
          -3.7927892   -3.7926183   -3.7829762   -3.7782935   -3.7746011
          -3.6292964   -3.6277152   -3.6193345   -3.6152689   -3.6100242
          -3.5886266   -3.5883995   -3.5826413   -3.5733154   -3.5705681
          -3.5582106   -3.5574437   -3.5484586   -3.5431562   -3.5393885
          -2.6657128   -2.4552475   -1.1251923   -1.0746117   -0.8557112
          -0.7844074   -0.7420243   -0.6985289   -0.0406500    0.0088193

           0.1653655    0.2451721    0.2470571    0.2474929    0.2517456
           0.2532735    0.2680788    0.2694256    0.2807626    0.2863329
           0.3080354    0.3146622    0.3164857    0.3505636    0.3521911
           0.3609625    0.3696719    0.3750360    0.3810842    0.3862874
           0.3882918    0.3900654    0.3975004    0.4034726    0.4067817
           0.4111758    0.4131226    0.4146507    0.4160927    0.4176959
           0.4180111    0.4218776    0.4232478    0.4244252    0.4248244
           0.4264247    0.4356632    0.4490339    0.4505522    0.4771002

           0.4799116    0.4889141    0.4983484    0.5006042    0.5341821
           0.5364615    0.5812409    0.5816230    0.5922008    0.5945798
           0.6133600    0.6178831    0.6276387    0.6365217    0.6383872
           0.6397818    0.6452251    0.6570393    0.6665158    0.6855542
           0.7042706    0.7110936    0.7131251    0.7269891    0.7335923
           0.7362597    0.7443088    0.7559630    0.7616012    0.7662032
           0.7759688    0.7798927    0.7839572    0.7933882    0.8196697
           0.8352913    0.8500084    0.8860524    0.9474920    0.9527675

           1.0526390    1.0574587    1.1450549    1.2132360    1.2214888
           1.2580421    1.3025378    1.3163902    1.3249321    1.3320576
           1.3750559    1.3787140    1.3912967    1.4133894    1.4179745
           1.4478770    1.4551139    1.4570807    1.4604759    1.4863157
           1.5375246    1.5451360    1.5940443    1.6085265    1.6643035
           1.6836290    1.7032796    1.7043205    1.7522396    1.7610658
           1.8589856    1.8725267
       ********************************************************
:GAP (global)   :    0.0    Ry =     0.0   eV (metal)
:GAP (this spin):    0.0    Ry =     0.0   eV (metal)
         Bandranges (emin - emax) and occupancy:
:BAN00087:  87    0.494796    0.581256  1.00000000
:BAN00088:  88    0.496135    0.593565  1.00000000
:BAN00089:  89    0.524831    0.596882  1.00000000
:BAN00090:  90    0.532571    0.604732  1.00000000
:BAN00091:  91    0.533950    0.613700  0.99670394
:BAN00092:  92    0.541939    0.618107  0.97200022
:BAN00093:  93    0.572709    0.627801  0.93128274
:BAN00094:  94    0.580960    0.637173  0.80477048
:BAN00095:  95    0.582792    0.638437  0.26919742
:BAN00096:  96    0.602208    0.640616  0.02585510
:BAN00097:  97    0.609931    0.647985  0.00018992
:BAN00098:  98    0.623290    0.665205  0.00000000
:BAN00099:  99    0.629234    0.683136  0.00000000
:BAN00100: 100    0.637533    0.695493  0.00000000
:BAN00101: 101    0.642987    0.706255  0.00000000
:BAN00102: 102    0.657311    0.731339  0.00000000
        Energy to separate low and high energystates:   -0.09202


:NOE  : NUMBER OF ELECTRONS          =   94.000

:FER  : F E R M I - ENERGY(TETRAH.M.)=   0.6123556720
:GMA  : POTENTIAL AND CHARGE CUT-OFF  16.00 Ry**.5
 
:POS001: ATOM   -1 X,Y,Z = 0.50000 0.00000 0.50000  MULT= 1  ZZ= 27.000  Co1
 
       LMMAX 16
       LM=   0 0  2 0  2 2 -2 2  4 0  4 2 -4 2  4 4 -4 4  6 0  6 2 -6 2  6 4 -6 4  6 6 -6 6
 
:CHA001: TOTAL VALENCE CHARGE INSIDE SPHERE   1 =   7.9749    (RMT=  2.3000 )
:PCS001: PARTIAL CHARGES SPHERE =  1 S,P,D,F,PX,PY,PZ,D-Z2,D-X2Y2,D-XY,D-XZ,D-YZ
:QTL001: 0.2394 3.2063 4.5114 0.0130 1.0547 1.0792 1.0726 0.8952 0.8988 0.9070 0.9087 0.9014
        Q-s-low E-s-low   Q-p-low E-p-low   Q-d-low E-d-low   Q-f-low E-f-low
:EPL001:  0.0000 10.0000    2.9952 -3.8237    0.0000 10.0000    0.0000 10.0000
        Q-s-hi  E-s-hi    Q-p-hi  E-p-hi    Q-d-hi  E-d-hi    Q-f-hi  E-f-hi
:EPH001:  0.2386  0.2169    0.2111  0.3590    4.5108  0.3590    0.0128  0.3525
 
                      QXX         QXY         QYY         QZZ       UP TO R
:VZZ001:             1.62803    -2.46883    -1.29238    -0.33567       2.300
 
:POS002: ATOM   -2 X,Y,Z = 0.00000 0.50000 0.50000  MULT= 1  ZZ= 27.000  Co1
 
       LMMAX 16
       LM=   0 0  2 0  2 2 -2 2  4 0  4 2 -4 2  4 4 -4 4  6 0  6 2 -6 2  6 4 -6 4  6 6 -6 6
 
:CHA002: TOTAL VALENCE CHARGE INSIDE SPHERE   2 =   7.9747    (RMT=  2.3000 )
:PCS002: PARTIAL CHARGES SPHERE =  2 S,P,D,F,PX,PY,PZ,D-Z2,D-X2Y2,D-XY,D-XZ,D-YZ
:QTL002: 0.2392 3.2067 4.5116 0.0130 1.0913 1.0425 1.0730 0.8956 0.9114 0.8946 0.8978 0.9130
        Q-s-low E-s-low   Q-p-low E-p-low   Q-d-low E-d-low   Q-f-low E-f-low
:EPL002:  0.0000 10.0000    2.9952 -3.8237    0.0000 10.0000    0.0000 10.0000
        Q-s-hi  E-s-hi    Q-p-hi  E-p-hi    Q-d-hi  E-d-hi    Q-f-hi  E-f-hi
:EPH002:  0.2385  0.2169    0.2115  0.3590    4.5111  0.3590    0.0128  0.3527
 
                      QXX         QXY         QYY         QZZ       UP TO R
:VZZ002:            -2.69225     0.02859     3.03198    -0.33978       2.300
 
:POS003: ATOM   -3 X,Y,Z = 0.50000 0.50000 0.50000  MULT= 1  ZZ= 27.000  Co1
 
       LMMAX 16
       LM=   0 0  2 0  2 2 -2 2  4 0  4 2 -4 2  4 4 -4 4  6 0  6 2 -6 2  6 4 -6 4  6 6 -6 6
 
:CHA003: TOTAL VALENCE CHARGE INSIDE SPHERE   3 =   7.9752    (RMT=  2.3000 )
:PCS003: PARTIAL CHARGES SPHERE =  3 S,P,D,F,PX,PY,PZ,D-Z2,D-X2Y2,D-XY,D-XZ,D-YZ
:QTL003: 0.2394 3.2067 4.5118 0.0130 1.0548 1.0792 1.0731 0.8953 0.8987 0.9069 0.9090 0.9011
        Q-s-low E-s-low   Q-p-low E-p-low   Q-d-low E-d-low   Q-f-low E-f-low
:EPL003:  0.0000 10.0000    2.9952 -3.8237    0.0000 10.0000    0.0000 10.0000
        Q-s-hi  E-s-hi    Q-p-hi  E-p-hi    Q-d-hi  E-d-hi    Q-f-hi  E-f-hi
:EPH003:  0.2391  0.2171    0.2115  0.3591    4.5109  0.3590    0.0129  0.3525
 
                      QXX         QXY         QYY         QZZ       UP TO R
:VZZ003:             1.61199     2.48837    -1.26545    -0.34657       2.300
 
:POS004: ATOM   -4 X,Y,Z = 0.33333 0.66667 0.00000  MULT= 2  ZZ= 27.000  Co2
 
       LMMAX 28
       LM=   0 0  1 1 -1 1  2 0  2 2 -2 2  3 1 -3 1  3 3 -3 3  4 0  4 2 -4 2  4 4 -4 4  5 1 -5 1
         5 3 -5 3  5 5 -5 5  6 0  6 2 -6 2  6 4 -6 4  6 6 -6 6
 
:CHA004: TOTAL VALENCE CHARGE INSIDE SPHERE   4 =   7.9917    (RMT=  2.3000 )
:PCS004: PARTIAL CHARGES SPHERE =  4 S,P,D,F,PX,PY,PZ,D-Z2,D-X2Y2,D-XY,D-XZ,D-YZ
:QTL004: 0.2495 3.2062 4.5197 0.0128 1.0586 1.0585 1.0885 0.9115 0.9101 0.9096 0.8941 0.8944
        Q-s-low E-s-low   Q-p-low E-p-low   Q-d-low E-d-low   Q-f-low E-f-low
:EPL004:  0.0024 -1.0505    2.9958 -3.8348    0.0024 -1.2807    0.0000 10.0000
        Q-s-hi  E-s-hi    Q-p-hi  E-p-hi    Q-d-hi  E-d-hi    Q-f-hi  E-f-hi
:EPH004:  0.2479  0.2365    0.2095  0.3675    4.5175  0.3466    0.0124  0.3624
 
                      QXX         QXY         QYY         QZZ       UP TO R
:VZZ004:             1.13156     0.01498     1.11286    -2.24448       2.300
 
:POS005: ATOM   -5 X,Y,Z = 0.00000 0.00000 0.00000  MULT= 1  ZZ= 65.000  Tb1
 
       LMMAX 16
       LM=   0 0  2 0  2 2 -2 2  4 0  4 2 -4 2  4 4 -4 4  6 0  6 2 -6 2  6 4 -6 4  6 6 -6 6
 
:CHA005: TOTAL VALENCE CHARGE INSIDE SPHERE   5 =  11.0180    (RMT=  2.5000 )
:PCS005: PARTIAL CHARGES SPHERE =  5 S,P,D,F,PX,PY,PZ,D-Z2,D-X2Y2,D-XY,D-XZ,D-YZ
:QTL005: 1.0475 2.8706 0.2259 6.8712 0.9590 0.9591 0.9518 0.0308 0.0618 0.0618 0.0359 0.0361
        Q-s-low E-s-low   Q-p-low E-p-low   Q-d-low E-d-low   Q-f-low E-f-low
:EPL005:  0.9856 -2.6655    2.7815 -0.9650    0.0000 10.0000    0.0000 10.0000
        Q-s-hi  E-s-hi    Q-p-hi  E-p-hi    Q-d-hi  E-d-hi    Q-f-hi  E-f-hi
:EPH005:  0.0623  0.3025    0.0895  0.3358    0.2258  0.3905    6.8712  0.4069
 
                      QXX         QXY         QYY         QZZ       UP TO R
:VZZ005:            -2.58748    -0.28050    -2.97248     5.55993       2.500
 
:CHA  : TOTAL VALENCE CHARGE INSIDE UNIT CELL =      54.421780
 
:SUM  : SUM OF EIGENVALUES =         -50.363949319
 
:GAP (global)   :    0.0    Ry =     0.0   eV (metal)
:GAP (this spin):    0.0    Ry =     0.0   eV (metal)
         Bandranges (emin - emax) and occupancy:
:BAN00087:  87    0.494796    0.581256  1.00000000
:BAN00088:  88    0.496135    0.593565  1.00000000
:BAN00089:  89    0.524831    0.596882  1.00000000
:BAN00090:  90    0.532571    0.604732  1.00000000
:BAN00091:  91    0.533950    0.613700  0.99670394
:BAN00092:  92    0.541939    0.618107  0.97200022
:BAN00093:  93    0.572709    0.627801  0.93128274
:BAN00094:  94    0.580960    0.637173  0.80477048
:BAN00095:  95    0.582792    0.638437  0.26919742
:BAN00096:  96    0.602208    0.640616  0.02585510
:BAN00097:  97    0.609931    0.647985  0.00018992
:BAN00098:  98    0.623290    0.665205  0.00000000
:BAN00099:  99    0.629234    0.683136  0.00000000
:BAN00100: 100    0.637533    0.695493  0.00000000
:BAN00101: 101    0.642987    0.706255  0.00000000
:BAN00102: 102    0.657311    0.731339  0.00000000
        Energy to separate low and high energystates:   -0.09202


:NOE  : NUMBER OF ELECTRONS          =   94.000

:FER  : F E R M I - ENERGY(TETRAH.M.)=   0.6123556720
:GMA  : POTENTIAL AND CHARGE CUT-OFF  16.00 Ry**.5
 
:POS001: ATOM   -1 X,Y,Z = 0.50000 0.00000 0.50000  MULT= 1  ZZ= 27.000  Co1
 
       LMMAX 16
       LM=   0 0  2 0  2 2 -2 2  4 0  4 2 -4 2  4 4 -4 4  6 0  6 2 -6 2  6 4 -6 4  6 6 -6 6
 
:CHA001: TOTAL VALENCE CHARGE INSIDE SPHERE   1 =   6.1772    (RMT=  2.3000 )
:PCS001: PARTIAL CHARGES SPHERE =  1 S,P,D,F,PX,PY,PZ,D-Z2,D-X2Y2,D-XY,D-XZ,D-YZ
:QTL001: 0.2415 3.2308 2.6881 0.0131 1.0627 1.0864 1.0815 0.5809 0.5498 0.5132 0.5047 0.5399
        Q-s-low E-s-low   Q-p-low E-p-low   Q-d-low E-d-low   Q-f-low E-f-low
:EPL001:  0.0000 10.0000    2.9952 -3.5885    0.0000 10.0000    0.0000 10.0000
        Q-s-hi  E-s-hi    Q-p-hi  E-p-hi    Q-d-hi  E-d-hi    Q-f-hi  E-f-hi
:EPH001:  0.2405  0.2675    0.2359  0.4289    2.6873  0.4909    0.0130  0.4894
 
                      QXX         QXY         QYY         QZZ       UP TO R
:VZZ001:             2.02050    -1.84462    -0.11495    -1.90550       2.300
 
:POS002: ATOM   -2 X,Y,Z = 0.00000 0.50000 0.50000  MULT= 1  ZZ= 27.000  Co1
 
       LMMAX 16
       LM=   0 0  2 0  2 2 -2 2  4 0  4 2 -4 2  4 4 -4 4  6 0  6 2 -6 2  6 4 -6 4  6 6 -6 6
 
:CHA002: TOTAL VALENCE CHARGE INSIDE SPHERE   2 =   6.1773    (RMT=  2.3000 )
:PCS002: PARTIAL CHARGES SPHERE =  2 S,P,D,F,PX,PY,PZ,D-Z2,D-X2Y2,D-XY,D-XZ,D-YZ
:QTL002: 0.2416 3.2307 2.6881 0.0133 1.0980 1.0511 1.0816 0.5806 0.4953 0.5676 0.5577 0.4866
        Q-s-low E-s-low   Q-p-low E-p-low   Q-d-low E-d-low   Q-f-low E-f-low
:EPL002:  0.0000 10.0000    2.9952 -3.5885    0.0000 10.0000    0.0000 10.0000
        Q-s-hi  E-s-hi    Q-p-hi  E-p-hi    Q-d-hi  E-d-hi    Q-f-hi  E-f-hi
:EPH002:  0.2407  0.2675    0.2356  0.4290    2.6872  0.4909    0.0130  0.4895
 
                      QXX         QXY         QYY         QZZ       UP TO R
:VZZ002:            -1.21415     0.03018     3.10057    -1.88641       2.300
 
:POS003: ATOM   -3 X,Y,Z = 0.50000 0.50000 0.50000  MULT= 1  ZZ= 27.000  Co1
 
       LMMAX 16
       LM=   0 0  2 0  2 2 -2 2  4 0  4 2 -4 2  4 4 -4 4  6 0  6 2 -6 2  6 4 -6 4  6 6 -6 6
 
:CHA003: TOTAL VALENCE CHARGE INSIDE SPHERE   3 =   6.1767    (RMT=  2.3000 )
:PCS003: PARTIAL CHARGES SPHERE =  3 S,P,D,F,PX,PY,PZ,D-Z2,D-X2Y2,D-XY,D-XZ,D-YZ
:QTL003: 0.2412 3.2304 2.6875 0.0130 1.0631 1.0863 1.0814 0.5809 0.5491 0.5133 0.5046 0.5398
        Q-s-low E-s-low   Q-p-low E-p-low   Q-d-low E-d-low   Q-f-low E-f-low
:EPL003:  0.0000 10.0000    2.9952 -3.5885    0.0000 10.0000    0.0000 10.0000
        Q-s-hi  E-s-hi    Q-p-hi  E-p-hi    Q-d-hi  E-d-hi    Q-f-hi  E-f-hi
:EPH003:  0.2405  0.2675    0.2355  0.4289    2.6866  0.4909    0.0130  0.4895
 
                      QXX         QXY         QYY         QZZ       UP TO R
:VZZ003:             2.00075     1.87766    -0.10151    -1.89925       2.300
 
:POS004: ATOM   -4 X,Y,Z = 0.33333 0.66667 0.00000  MULT= 2  ZZ= 27.000  Co2
 
       LMMAX 28
       LM=   0 0  1 1 -1 1  2 0  2 2 -2 2  3 1 -3 1  3 3 -3 3  4 0  4 2 -4 2  4 4 -4 4  5 1 -5 1
         5 3 -5 3  5 5 -5 5  6 0  6 2 -6 2  6 4 -6 4  6 6 -6 6
 
:CHA004: TOTAL VALENCE CHARGE INSIDE SPHERE   4 =   6.4295    (RMT=  2.3000 )
:PCS004: PARTIAL CHARGES SPHERE =  4 S,P,D,F,PX,PY,PZ,D-Z2,D-X2Y2,D-XY,D-XZ,D-YZ
:QTL004: 0.2345 3.2256 2.9536 0.0128 1.0622 1.0623 1.1006 0.5527 0.6187 0.6191 0.5814 0.5814
        Q-s-low E-s-low   Q-p-low E-p-low   Q-d-low E-d-low   Q-f-low E-f-low
:EPL004:  0.0026 -0.9000    2.9952 -3.5993    0.0032 -1.1545    0.0000 10.0000
        Q-s-hi  E-s-hi    Q-p-hi  E-p-hi    Q-d-hi  E-d-hi    Q-f-hi  E-f-hi
:EPH004:  0.2319  0.2647    0.2290  0.4306    2.9513  0.4910    0.0127  0.5024
 
                      QXX         QXY         QYY         QZZ       UP TO R
:VZZ004:            -0.03918     0.00905    -0.03500     0.07416       2.300
 
:POS005: ATOM   -5 X,Y,Z = 0.00000 0.00000 0.00000  MULT= 1  ZZ= 65.000  Tb1
 
       LMMAX 16
       LM=   0 0  2 0  2 2 -2 2  4 0  4 2 -4 2  4 4 -4 4  6 0  6 2 -6 2  6 4 -6 4  6 6 -6 6
 
:CHA005: TOTAL VALENCE CHARGE INSIDE SPHERE   5 =   4.2839    (RMT=  2.5000 )
:PCS005: PARTIAL CHARGES SPHERE =  5 S,P,D,F,PX,PY,PZ,D-Z2,D-X2Y2,D-XY,D-XZ,D-YZ
:QTL005: 1.0426 2.8570 0.2615 0.1204 0.9538 0.9536 0.9500 0.0374 0.0637 0.0640 0.0484 0.0482
        Q-s-low E-s-low   Q-p-low E-p-low   Q-d-low E-d-low   Q-f-low E-f-low
:EPL005:  0.9824 -2.4549    2.7418 -0.8063    0.0000 10.0000    0.0000 10.0000
        Q-s-hi  E-s-hi    Q-p-hi  E-p-hi    Q-d-hi  E-d-hi    Q-f-hi  E-f-hi
:EPH005:  0.0599  0.3322    0.1151  0.4184    0.2615  0.4618    0.1204  0.4892
 
                      QXX         QXY         QYY         QZZ       UP TO R
:VZZ005:            -2.15149     0.19147    -1.92819     4.07961       2.500
 
:CHA  : TOTAL VALENCE CHARGE INSIDE UNIT CELL =      39.578220
 
:SUM  : SUM OF EIGENVALUES =         -49.334073557
 

        1.ATOM      Co1                   5 CORE STATES
:1S 001: 1S                -556.812114399 Ry
:2S 001: 2S                 -64.962666591 Ry
:2PP001: 2P*                -56.193469434 Ry
:2P 001: 2P                 -55.105273556 Ry
:3S 001: 3S                  -6.523515749 Ry

        2.ATOM      Co1                   5 CORE STATES
:1S 002: 1S                -556.812118918 Ry
:2S 002: 2S                 -64.962671147 Ry
[...]
        Energy to separate low and high energystates:   -0.01301


:NOE  : NUMBER OF ELECTRONS          =   94.000

:FER  : F E R M I - ENERGY(TETRAH.M.)=   0.6130657344
:GMA  : POTENTIAL AND CHARGE CUT-OFF  16.00 Ry**.5
 
:POS001: ATOM   -1 X,Y,Z = 0.50000 0.00000 0.50000  MULT= 1  ZZ= 27.000  Co1
 
       LMMAX 16
       LM=   0 0  2 0  2 2 -2 2  4 0  4 2 -4 2  4 4 -4 4  6 0  6 2 -6 2  6 4 -6 4  6 6 -6 6
 
:CHA001: TOTAL VALENCE CHARGE INSIDE SPHERE   1 =   6.2182    (RMT=  2.3000 )
:PCS001: PARTIAL CHARGES SPHERE =  1 S,P,D,F,PX,PY,PZ,D-Z2,D-X2Y2,D-XY,D-XZ,D-YZ
:QTL001: 0.2316 3.2104 2.7609 0.0118 1.0600 1.0773 1.0731 0.6031 0.5652 0.5352 0.5035 0.5544
        Q-s-low E-s-low   Q-p-low E-p-low   Q-d-low E-d-low   Q-f-low E-f-low
:EPL001:  0.0000 10.0000    2.9952 -3.6018    0.0000 10.0000    0.0000 10.0000
        Q-s-hi  E-s-hi    Q-p-hi  E-p-hi    Q-d-hi  E-d-hi    Q-f-hi  E-f-hi
:EPH001:  0.2308  0.2912    0.2156  0.4454    2.7599  0.4955    0.0115  0.5015
 
                      QXX         QXY         QYY         QZZ       UP TO R
:VZZ001:             1.38074    -1.13912     0.08247    -1.46317       2.300
 
:POS002: ATOM   -2 X,Y,Z = 0.00000 0.50000 0.50000  MULT= 1  ZZ= 27.000  Co1
 
       LMMAX 16
       LM=   0 0  2 0  2 2 -2 2  4 0  4 2 -4 2  4 4 -4 4  6 0  6 2 -6 2  6 4 -6 4  6 6 -6 6
 
:CHA002: TOTAL VALENCE CHARGE INSIDE SPHERE   2 =   6.2182    (RMT=  2.3000 )
:PCS002: PARTIAL CHARGES SPHERE =  2 S,P,D,F,PX,PY,PZ,D-Z2,D-X2Y2,D-XY,D-XZ,D-YZ
:QTL002: 0.2315 3.2102 2.7609 0.0116 1.0862 1.0516 1.0728 0.6032 0.5231 0.5769 0.5799 0.4771
        Q-s-low E-s-low   Q-p-low E-p-low   Q-d-low E-d-low   Q-f-low E-f-low
:EPL002:  0.0000 10.0000    2.9952 -3.6017    0.0000 10.0000    0.0000 10.0000
        Q-s-hi  E-s-hi    Q-p-hi  E-p-hi    Q-d-hi  E-d-hi    Q-f-hi  E-f-hi
:EPH002:  0.2311  0.2912    0.2153  0.4454    2.7602  0.4955    0.0114  0.5015
 
                      QXX         QXY         QYY         QZZ       UP TO R
:VZZ002:            -0.55890     0.03044     2.03401    -1.47508       2.300
 
:POS003: ATOM   -3 X,Y,Z = 0.50000 0.50000 0.50000  MULT= 1  ZZ= 27.000  Co1
 
       LMMAX 16
       LM=   0 0  2 0  2 2 -2 2  4 0  4 2 -4 2  4 4 -4 4  6 0  6 2 -6 2  6 4 -6 4  6 6 -6 6
 
:CHA003: TOTAL VALENCE CHARGE INSIDE SPHERE   3 =   6.2183    (RMT=  2.3000 )
:PCS003: PARTIAL CHARGES SPHERE =  3 S,P,D,F,PX,PY,PZ,D-Z2,D-X2Y2,D-XY,D-XZ,D-YZ
:QTL003: 0.2315 3.2106 2.7613 0.0117 1.0600 1.0774 1.0730 0.6033 0.5635 0.5377 0.5042 0.5533
        Q-s-low E-s-low   Q-p-low E-p-low   Q-d-low E-d-low   Q-f-low E-f-low
:EPL003:  0.0000 10.0000    2.9952 -3.6017    0.0000 10.0000    0.0000 10.0000
        Q-s-hi  E-s-hi    Q-p-hi  E-p-hi    Q-d-hi  E-d-hi    Q-f-hi  E-f-hi
:EPH003:  0.2308  0.2913    0.2155  0.4454    2.7601  0.4955    0.0115  0.5015
 
                      QXX         QXY         QYY         QZZ       UP TO R
:VZZ003:             1.33843     1.13166     0.11966    -1.45809       2.300
 
:POS004: ATOM   -4 X,Y,Z = 0.33333 0.66667 0.00000  MULT= 2  ZZ= 27.000  Co2
 
       LMMAX 28
       LM=   0 0  1 1 -1 1  2 0  2 2 -2 2  3 1 -3 1  3 3 -3 3  4 0  4 2 -4 2  4 4 -4 4  5 1 -5 1
         5 3 -5 3  5 5 -5 5  6 0  6 2 -6 2  6 4 -6 4  6 6 -6 6
 
:CHA004: TOTAL VALENCE CHARGE INSIDE SPHERE   4 =   6.2379    (RMT=  2.3000 )
:PCS004: PARTIAL CHARGES SPHERE =  4 S,P,D,F,PX,PY,PZ,D-Z2,D-X2Y2,D-XY,D-XZ,D-YZ
:QTL004: 0.2260 3.2057 2.7918 0.0124 1.0591 1.0595 1.0865 0.5404 0.5809 0.5753 0.5478 0.5481
        Q-s-low E-s-low   Q-p-low E-p-low   Q-d-low E-d-low   Q-f-low E-f-low
:EPL004:  0.0024 -1.0111    2.9952 -3.6005    0.0024 -1.2490    0.0000 10.0000
        Q-s-hi  E-s-hi    Q-p-hi  E-p-hi    Q-d-hi  E-d-hi    Q-f-hi  E-f-hi
:EPH004:  0.2239  0.2928    0.2092  0.4469    2.7901  0.4966    0.0107  0.5119
 
                      QXX         QXY         QYY         QZZ       UP TO R
:VZZ004:             0.12262     0.07263     0.21124    -0.33388       2.300
 
:POS005: ATOM   -5 X,Y,Z = 0.00000 0.00000 0.00000  MULT= 1  ZZ= 65.000  Tb1
 
       LMMAX 16
       LM=   0 0  2 0  2 2 -2 2  4 0  4 2 -4 2  4 4 -4 4  6 0  6 2 -6 2  6 4 -6 4  6 6 -6 6
 
:CHA005: TOTAL VALENCE CHARGE INSIDE SPHERE   5 =   5.4188    (RMT=  2.5000 )
:PCS005: PARTIAL CHARGES SPHERE =  5 S,P,D,F,PX,PY,PZ,D-Z2,D-X2Y2,D-XY,D-XZ,D-YZ
:QTL005: 1.0495 2.8726 0.3449 1.1501 0.9592 0.9598 0.9540 0.0549 0.0802 0.0796 0.0655 0.0652
        Q-s-low E-s-low   Q-p-low E-p-low   Q-d-low E-d-low   Q-f-low E-f-low
:EPL005:  0.9824 -2.5685    2.7642 -0.9114    0.0000 10.0000    0.0000 10.0000
        Q-s-hi  E-s-hi    Q-p-hi  E-p-hi    Q-d-hi  E-d-hi    Q-f-hi  E-f-hi
:EPH005:  0.0661  0.3318    0.1081  0.4316    0.3449  0.4667    1.1501  0.5788
 
                      QXX         QXY         QYY         QZZ       UP TO R
:VZZ005:            -3.96808    -1.47959    -5.68435     9.65240       2.500
 
:CHA  : TOTAL VALENCE CHARGE INSIDE UNIT CELL =      40.455455
 
:SUM  : SUM OF EIGENVALUES =         -49.177849574
 

        1.ATOM      Co1                   5 CORE STATES
:1S 001: 1S                -556.816915371 Ry
:2S 001: 2S                 -64.942418150 Ry
:2PP001: 2P*                -56.179735879 Ry
:2P 001: 2P                 -55.090927428 Ry
:3S 001: 3S                  -6.440689804 Ry

        2.ATOM      Co1                   5 CORE STATES
:1S 002: 1S                -556.816827694 Ry
:2S 002: 2S                 -64.942297240 Ry
:2PP002: 2P*                -56.179619788 Ry
:2P 002: 2P                 -55.090810919 Ry
:3S 002: 3S                  -6.440585048 Ry

        3.ATOM      Co1                   5 CORE STATES
:1S 003: 1S                -556.816817908 Ry
:2S 003: 2S                 -64.942291513 Ry
:2PP003: 2P*                -56.179615161 Ry
:2P 003: 2P                 -55.090806207 Ry
:3S 003: 3S                  -6.440558266 Ry

        4.ATOM      Co2                   5 CORE STATES
       CORE-FORCE in mRy/a.u. = |F|      Fx             Fy             Fz
:FCO004:   4.ATOM      7.448569701069      2.664390745643      6.955732351537      0.000000000000

:1S 004: 1S                -556.814974259 Ry
:2S 004: 2S                 -64.937708230 Ry
:2PP004: 2P*                -56.175445185 Ry
:2P 004: 2P                 -55.086598841 Ry
:3S 004: 3S                  -6.436825182 Ry

        5.ATOM      Tb1                  14 CORE STATES
:1S 005: 1S               -3807.004401171 Ry
:2S 005: 2S                -630.215649459 Ry
:2PP005: 2P*               -598.801483351 Ry
:2P 005: 2P                -543.928695518 Ry
:3S 005: 3S                -139.408350717 Ry
:3PP005: 3P*               -125.754058950 Ry
:3P 005: 3P                -114.438403593 Ry
:3DD005: 3D*                -90.928418584 Ry
:3D 005: 3D                 -88.460796277 Ry
:4S 005: 4S                 -27.283644506 Ry
:4PP005: 4P*                -21.935533802 Ry
:4P 005: 4P                 -19.404243197 Ry
:4DD005: 4D*                -10.598878718 Ry
:4D 005: 4D                 -10.139772891 Ry

        1.ATOM      Co1                   5 CORE STATES
:1S 001: 1S                -556.817415334 Ry
:2S 001: 2S                 -64.875209597 Ry
:2PP001: 2P*                -56.130198396 Ry
:2P 001: 2P                 -55.039819823 Ry
:3S 001: 3S                  -6.298957083 Ry

        2.ATOM      Co1                   5 CORE STATES
:1S 002: 1S                -556.817326238 Ry
:2S 002: 2S                 -64.875101682 Ry
:2PP002: 2P*                -56.130091212 Ry
:2P 002: 2P                 -55.039712558 Ry
:3S 002: 3S                  -6.298876527 Ry

        3.ATOM      Co1                   5 CORE STATES
:1S 003: 1S                -556.817314730 Ry
:2S 003: 2S                 -64.875110812 Ry
:2PP003: 2P*                -56.130096809 Ry
:2P 003: 2P                 -55.039718461 Ry
:3S 003: 3S                  -6.298880281 Ry

        4.ATOM      Co2                   5 CORE STATES
       CORE-FORCE in mRy/a.u. = |F|      Fx             Fy             Fz
:FCO004:   4.ATOM      7.305751873310      2.582453927944      6.834101414554      0.000000000000

:1S 004: 1S                -556.815437054 Ry
:2S 004: 2S                 -64.872173167 Ry
:2PP004: 2P*                -56.127146582 Ry
:2P 004: 2P                 -55.036769485 Ry
:3S 004: 3S                  -6.298574973 Ry

        5.ATOM      Tb1                  14 CORE STATES
:1S 005: 1S               -3807.004518423 Ry
:2S 005: 2S                -630.212511960 Ry
:2PP005: 2P*               -598.799972289 Ry
:2P 005: 2P                -543.926217872 Ry
:3S 005: 3S                -139.240707424 Ry
:3PP005: 3P*               -125.603156055 Ry
:3P 005: 3P                -114.264380240 Ry
:3DD005: 3D*                -90.804288903 Ry
:3D 005: 3D                 -88.330775186 Ry
:4S 005: 4S                 -26.903244415 Ry
:4PP005: 4P*                -21.555681606 Ry
:4P 005: 4P                 -19.028858586 Ry
:4DD005: 4D*                -10.225894068 Ry
:4D 005: 4D                  -9.768547531 Ry
:CINT001 Core Integral Atom   1 Up    5.99961216 Dn   5.999581 Total  11.99919363
:CINT002 Core Integral Atom   2 Up    5.99961213 Dn   5.999581 Total  11.99919358
:CINT003 Core Integral Atom   3 Up    5.99961213 Dn   5.999581 Total  11.99919360
:CINT004 Core Integral Atom   4 Up    5.99960948 Dn   5.999580 Total  11.99918912
:CINT005 Core Integral Atom   5 Up   22.99997711 Dn  22.999973 Total  45.99994992

       DENSITY AT NUCLEUS
        JATOM        VALENCE       SEMI-CORE          CORE           TOTAL
:RTO001:   1        8.142352        0.000000    17496.964658    17505.107010
:RTO002:   2        8.142059        0.000000    17496.964072    17505.106131
:RTO003:   3        8.143224        0.000000    17496.964382    17505.107606
:RTO004:   4        8.090327        0.000000    17496.912329    17505.002656
:RTO005:   5     1239.108010        0.000000  1219630.182901  1220869.290912

       HYPERFINE FIELDS FOR THOMSON RADIUS
:HFF001:           -9.865           0.000        -202.144        -212.009 (KGAUSS)
:HFF002:           -9.589           0.000        -202.115        -211.704 (KGAUSS)
:HFF003:           -8.924           0.000        -202.065        -210.989 (KGAUSS)
:HFF004:           54.225           0.000        -196.907        -142.682 (KGAUSS)
:HFF005:         2514.928           0.000       -2492.087          22.841 (KGAUSS)
:K-LIST:Reduced k-vector list    19745    2293
     
       CHARGES OF NEW CHARGE DENSITY
:NTO   : INTERSTITIAL      UP =     3.421181 DN =     3.906853 TOT =     7.328034
:NPC   : INTERSTITIAL      UP =    10.534009 DN =    10.027563 TOT =    20.561572
:NTO001: CHARGE SPHERE   1 UP =   13.806813 DN =   12.217700 TOT =   26.024514
:NTO002: CHARGE SPHERE   2 UP =   13.806874 DN =   12.217637 TOT =   26.024511
:NTO003: CHARGE SPHERE   3 UP =   13.806825 DN =   12.217803 TOT =   26.024628
:NTO004: CHARGE SPHERE   4 UP =   13.796461 DN =   12.237300 TOT =   26.033761
:NTO005: CHARGE SPHERE   5 UP =   34.107962 DN =   28.418738 TOT =   62.526700

:NEC01: NUCLEAR AND ELECTRONIC CHARGE    200.00000000   199.99590930 Plane Wave
     
       CHARGES OF OLD CHARGE DENSITY
:OTO   : INTERSTITIAL      UP =     3.422975 DN =     3.909591 TOT =     7.332566
:OPC   : INTERSTITIAL      UP =    10.539944 DN =    10.033738 TOT =    20.573681
:OTO001: CHARGE SPHERE   1 UP =   13.806779 DN =   12.217715 TOT =   26.024494
:OTO002: CHARGE SPHERE   2 UP =   13.806774 DN =   12.217736 TOT =   26.024510
:OTO003: CHARGE SPHERE   3 UP =   13.806717 DN =   12.217818 TOT =   26.024535
:OTO004: CHARGE SPHERE   4 UP =   13.796366 DN =   12.237313 TOT =   26.033679
:OTO005: CHARGE SPHERE   5 UP =   34.107627 DN =   28.418910 TOT =   62.526537

:NEC02: NUCLEAR AND ELECTRONIC CHARGE    200.00000000   200.00000000
     
       CONVERGENCE TEST
:DTO001: DIFFERENCE SPHERE  1 UP =  0.0002814 DN =  0.0000991 TOT =  0.0003805
:DTO002: DIFFERENCE SPHERE  2 UP =  0.0002022 DN =  0.0001128 TOT =  0.0003150
:DTO003: DIFFERENCE SPHERE  3 UP =  0.0001879 DN =  0.0000926 TOT =  0.0002805
:DTO004: DIFFERENCE SPHERE  4 UP =  0.0002229 DN =  0.0000717 TOT =  0.0002947
:DTO005: DIFFERENCE SPHERE  5 UP =  0.0004258 DN =  0.0004446 TOT =  0.0008704

:DIS  :  CHARGE DISTANCE      (  0.0004446 for atom    5 spin 2)      0.0008119
 
******************************************************
* Multisecant Mixing Release 10.8.9                  *
* Standard Mode with step bound                      *
* Multisecant MSR1 Algorithm                         *
* Regularization       2.000E-04                     *
* Minimum Greed        1.000E-03                     *
* Max Number of Memory Steps    8                    *
******************************************************
 
:INFOC: Max vcoul   0.00002 for atom   3 average:   0.00002

:FULLRMS/Atom   0.0009499308
:PLANE:  PW /ATOM     1.08548 DISTAN   2.94E-04 %  2.71E-02
:CHARG:  CLM/ATOM   260.58405 DISTAN   5.89E-04 %  2.26E-04
:INFOF Fractnow,Tolerror,TolReject,qtot     0.649     1.667     3.000     0.001 F F F

Step History
        Dmix         Dmixt        Red     Pred      Step      Lambda    MagAbs    Beta
  3   3.8126E-02   3.8126E-02  9.15E-01  9.91E-01  1.00E-01  1.00E+00  1.17E-03  1.00E+00
  4   7.6252E-02   3.3455E-02  1.84E+00  8.51E-01  1.40E-01  1.74E+00  1.51E-03  1.00E+00
  5   3.8126E-02   1.0091E-02  8.18E-01  8.19E-01  1.40E-01  2.01E+00  1.51E-03  1.00E+00
  6   4.0693E-02   2.2102E-02  8.02E-01  8.13E-01  2.78E-01  1.70E+00  2.45E-03  9.98E-01
  7   7.0146E-02   5.2257E-02  1.03E+00  1.02E+00  4.17E-01  1.51E+00  2.94E-03  1.00E+00
  8   4.4566E-02   4.4566E-02  1.05E+00  9.19E-01  2.37E-01  1.44E+00  1.72E-03  5.20E-01
  9   3.9120E-02   1.6601E-02  6.68E-01  6.57E-01  2.89E-01  1.40E+00  2.20E-03  1.00E+00
 10   3.9533E-02   3.3169E-02  7.05E-01  6.48E-01  4.40E-01  1.16E+00  2.24E-03  7.90E-01
 11   2.5794E-02   2.5794E-02  1.00E+00  6.80E-01  6.36E-01  1.05E+00  2.28E-03  1.00E+00
:NOTE :  Number of Memory Steps    8 Skipping    2
:INFOSL ,t1/t2,syy/sys,sqrt(syy/sss)     0.001     0.001     0.844     5.659     6.027     0.939     5.659     8.640     0.655

:PREDicted Charge, CTotal, PW Trust   8.65E-04   2.98E-03   9.36E-04
:PREDicted DMix, Beta, BLim           8.43E-03   1.01E+00   6.87E-01

Eigenvalues, unscaled except for SY+YY with Slambda=   1.04051 Ylambda=   1.00000
   #     SY Real       SY Imag         SS            YY        SY+YY Real     SY+YY Imag
   1   3.07419E+00   0.00000E+00   4.38333E+00   3.10108E+00   6.20407E+00   0.00000E+00
   2   2.16650E-01   0.00000E+00   8.70262E-02   7.35740E-01   9.97021E-01   0.00000E+00
   3   4.70465E-02   0.00000E+00   9.74261E-03   3.55666E-01   4.22674E-01   0.00000E+00
   4   5.79193E-03   0.00000E+00   9.19503E-05   2.51502E-01   2.98492E-01   0.00000E+00
   5   2.61840E-03   0.00000E+00   6.80859E-05   7.21504E-02   7.57136E-02   0.00000E+00
   6   2.57229E-06   0.00000E+00   2.80294E-05   1.29674E-03   1.34458E-03   0.00000E+00
   7   6.57437E-05   0.00000E+00   1.48886E-06   5.81833E-04   6.56186E-04   0.00000E+00
   8   4.66881E-05   0.00000E+00   1.08750E-07   1.62369E-05   2.45679E-05   0.00000E+00

:SING : Singular value  6.238E+00  Weight  1.000E+00  Projection  2.951E-05
:SING : Singular value  9.924E-01  Weight  1.000E+00  Projection  7.488E-05
:SING : Singular value  4.227E-01  Weight  1.000E+00  Projection  1.341E-04
:SING : Singular value  2.983E-01  Weight  1.000E+00  Projection  1.645E-04
:SING : Singular value  7.569E-02  Weight  9.997E-01  Projection  3.124E-04
:SING : Singular value  1.345E-03  Weight  5.374E-01  Projection -1.667E-03
:SING : Singular value  6.562E-04  Weight  2.167E-01  Projection -1.177E-02
:SING : Singular value  2.457E-05  Weight  3.876E-04  Projection -1.920E-04

:RANK :  ACTIVE   5.75/8  =  71.93 % ; YY RANK   5.70/8  =  71.22 %
:TRUST:  Step  7.1E-01 Charge  1.9E-03 (e) CTO  9.7E-03 (e) PW  1.7E-02 (e)
:DIRM :  MEMORY  8/8  RED  0.65 PRED  0.68 NEXT  0.97
:DIRP : |MSR1|= 5.749E-05 |PRATT|= 1.040E-03 ANGLE=   5.6 DEGREES
:DIRQ : |MSR1|= 1.444E-04 |PRATT|= 2.081E-03 ANGLE=  25.3 DEGREES
:DIRT : |MSR1|= 1.555E-04 |PRATT|= 2.327E-03 ANGLE=  23.7 DEGREES
:MIX  :  MSE1   REGULARIZATION:  1.25E-03 GREED: 0.02123  Newton 1.00  0.0668                
     
       CHARGES OF MIXED CHARGE DENSITY
:CTO   : INTERSTITIAL      UP =     3.422972 DN =     3.909548 TOT =     7.332519
:CPC   : INTERSTITIAL      UP =    10.539928 DN =    10.033707 TOT =    20.573635
:CTO001: CHARGE SPHERE   1 UP =   13.806779 DN =   12.217722 TOT =   26.024501
:CTO002: CHARGE SPHERE   2 UP =   13.806778 DN =   12.217735 TOT =   26.024513
:CTO003: CHARGE SPHERE   3 UP =   13.806722 DN =   12.217823 TOT =   26.024544
:CTO004: CHARGE SPHERE   4 UP =   13.796370 DN =   12.237317 TOT =   26.033687
:CTO005: CHARGE SPHERE   5 UP =   34.107642 DN =   28.418907 TOT =   62.526548

       SPIN MAGNETIC MOMENTS OF MIXED CHARGE DENSITY
:MMINT:  MAGNETIC MOMENT IN INTERSTITIAL  =   -0.48658
:MMI001: MAGNETIC MOMENT IN SPHERE   1    =    1.58906
:MMI002: MAGNETIC MOMENT IN SPHERE   2    =    1.58904
:MMI003: MAGNETIC MOMENT IN SPHERE   3    =    1.58890
:MMI004: MAGNETIC MOMENT IN SPHERE   4    =    1.55905
:MMI005: MAGNETIC MOMENT IN SPHERE   5    =    5.68873
:MMTOT:  SPIN MAGNETIC MOMENT IN CELL     =   13.08726

:NEC03: NUCLEAR AND ELECTRONIC CHARGE    200.00000000   200.00000000

:VSNew: Total Rescaling   1.00000000

PW CHANGE     H    K    L      Current       Change    Residue
:PUP001:      0    0    0  2.44775138E-02 -3.427E-08  1.076E-07
:PUP002:     -1    0    0  2.72099168E-03  1.470E-08  2.828E-07
:PUP003:     -1    1    0  2.72397592E-03  1.521E-08  3.011E-07
:PUP004:      0   -1    0  2.72080763E-03 -8.157E-09  9.889E-08
:PUP005:      0    0   -1  6.35038872E-03  3.909E-08  5.265E-07
:PUP006:     -1    0   -1  6.87341534E-03  1.766E-08  2.948E-07
:PUP007:     -1    0    1  6.87611880E-03  1.341E-08  2.381E-07
:PUP008:     -1    1   -1  6.87290043E-03  1.971E-08  3.252E-07
:PUP009:     -1    1    1  6.87552849E-03  1.411E-08  2.472E-07
:PUP010:      0   -1   -1  6.87450896E-03  4.467E-09  1.313E-07
:PUP011:      0   -1    1  6.87448300E-03  4.877E-09  1.379E-07
:PUP012:     -2    1    0  6.28240199E-03 -3.022E-09 -8.424E-08
  
:PDN001:      0    0    0  2.44430768E-02 -1.293E-07 -1.988E-06
:PDN002:     -1    0    0  3.52013020E-03 -4.565E-08 -6.576E-07
:PDN003:     -1    1    0  3.51837899E-03 -4.226E-08 -6.108E-07
:PDN004:      0   -1    0  3.53065059E-03 -5.037E-08 -6.219E-07
:PDN005:      0    0   -1  6.66304613E-03  5.964E-08  9.048E-07
:PDN006:     -1    0   -1  6.82088650E-03  4.921E-08  7.113E-07
:PDN007:     -1    0    1  6.79594292E-03  3.501E-08  4.728E-07
:PDN008:     -1    1   -1  6.82067853E-03  4.666E-08  6.846E-07
:PDN009:     -1    1    1  6.79585460E-03  3.179E-08  4.368E-07
:PDN010:      0   -1   -1  6.81397774E-03  3.963E-08  5.997E-07
:PDN011:      0   -1    1  6.81387137E-03  4.017E-08  6.082E-07
:PDN012:     -2    1    0  6.02623019E-03  7.571E-08  1.122E-06

:ENE  : ********** TOTAL ENERGY IN Ry =       -37373.11251457

:FOR001:   1.ATOM          0.000          0.000          0.000          0.000 partial forces
:FOR002:   2.ATOM          0.000          0.000          0.000          0.000 partial forces
:FOR003:   3.ATOM          0.000          0.000          0.000          0.000 partial forces
:FOR004:   4.ATOM          0.323          0.110         -0.304          0.000 partial forces
:FOR005:   5.ATOM          0.000          0.000          0.000          0.000 partial forces
       TOTAL FORCE WITH RESPECT TO THE GLOBAL COORDINATE SYSTEM:
:FGL001:   1.ATOM                 0.000000000     0.000000000     0.000000000 partial forces
:FGL002:   2.ATOM                 0.000000000     0.000000000     0.000000000 partial forces
:FGL003:   3.ATOM                 0.000000000     0.000000000     0.000000000 partial forces
:FGL004:   4.ATOM                 0.127559747    -0.240267434     0.000000000 partial forces
:FGL005:   5.ATOM                 0.000000000     0.000000000     0.000000000 partial forces
