
:LABEL1: Calculations in /pscratch/sd/z/zhang714/cmae_jobs/cmae-main/test_TbCo5/00_n30_regular/case
:LABEL2: on nid006031 at Mon Feb 23 02:51:46 PM PST 2026
:LABEL3: using WIEN2k_24.1 (Release 1/8/2024) in /global/homes/z/zhang714/github/wien2k/src

:LABEL4: using the command: runsp_lapw -so -p -cc 0.001 -ec 0.00001 -i 100

 Euler-Maclaurian Coulomb
 Consistent 3/8+Simpson combinations at start/end
 New Mode for Coulomb Integral
 Extension of core to zero
 LDM version in phi
 Fifth-order quadrature in outwin
 Lebedev-Laikov Grid in lapw0


            ---------
:ITE001:  1. ITERATION
            ---------

:NATO :    5 INDEPENDENT AND    6 TOTAL ATOMS IN UNITCELL
       SUBSTANCE: blebleble                                s-o calc. M||  0.10

       LATTICE                      = H   
:LAT  : LATTICE CONSTANTS=  9.34658  9.34658  7.54001
:VOL  : UNIT CELL VOLUME =     570.43781
:POT  : POTENTIAL OPTION EX_PBE EC_PBE VX_PBE VC_PBE
       MODE OF CALCULATION IS       = RELA
       SPINPOLARIZED CALCULATION
:IFFT  : FFT-parameters:   96   96   80 Factor: 2.00


   CONVERGENCE PARAMETER FOR PSEUDOCHARGE: NCON=  9
   MAXIMAL VALUE OF RMT(JATOM)*ABSK(NKK) : RK  =39.99508


:VKCOUL :  VK-COUL convergence: 0.295E-09
 Lebedev grid of          350
 :rho_min:   2.0000000000000000E-008   1.0000000000000001E-009
:VCOUL001 ATOMNUMBER=  1 Co1     VCOUL-ZERO =  0.41266E+00
:EFG001:                        EFG         =    -0.14257   *10**21  V / m**2
                               V20  TOT/SRF=     0.02219     0.03253
                               V22  TOT/SRF=    -0.06485    -0.12286
                               V22M TOT/SRF=     0.11238     0.21286
                               V21  TOT/SRF=     0.00000     0.00000
                               V21M TOT/SRF=     0.00000     0.00000

             -0.07767    0.11238    0.00000       -0.14257    0.00000    0.00000
              0.11238    0.05204    0.00000        0.00000    0.11694    0.00000
              0.00000    0.00000    0.02563        0.00000    0.00000    0.02563

         MAIN DIRECTIONS OF THE EFG   1.0000  0.5775  0.0000
                                     -0.5775  1.0000  0.0000
                                     -0.0000 -0.0000  1.0000
:ANG001:  ANGLE WITH OLD X-AXIS =        30.0

:ETA001:                         ASYMM. ETA =     0.64049


:VCOUL002 ATOMNUMBER=  2 Co1     VCOUL-ZERO =  0.41266E+00
:EFG002:                        EFG         =    -0.14258   *10**21  V / m**2
                               V20  TOT/SRF=     0.02219     0.03253
                               V22  TOT/SRF=     0.12977     0.24580
                               V22M TOT/SRF=    -0.00000    -0.00000
                               V21  TOT/SRF=     0.00000     0.00000
                               V21M TOT/SRF=     0.00000     0.00000

              0.11696   -0.00000    0.00000        0.11696    0.00000    0.00000
             -0.00000   -0.14258    0.00000        0.00000   -0.14258    0.00000
              0.00000    0.00000    0.02562        0.00000    0.00000    0.02562

         MAIN DIRECTIONS OF THE EFG   1.0000  0.0000  0.0000
                                     -0.0000  1.0000  0.0000
                                      0.0000  0.0000  1.0000
:ANG002:  ANGLE WITH OLD X-AXIS =         0.0

:ETA002:                         ASYMM. ETA =     0.64061


:VCOUL003 ATOMNUMBER=  3 Co1     VCOUL-ZERO =  0.41267E+00
:EFG003:                        EFG         =    -0.14257   *10**21  V / m**2
                               V20  TOT/SRF=     0.02219     0.03253
                               V22  TOT/SRF=    -0.06485    -0.12286
                               V22M TOT/SRF=    -0.11239    -0.21287
                               V21  TOT/SRF=     0.00000     0.00000
                               V21M TOT/SRF=     0.00000     0.00000

             -0.07766   -0.11239    0.00000       -0.14257    0.00000    0.00000
             -0.11239    0.05204    0.00000        0.00000    0.11695    0.00000
              0.00000    0.00000    0.02562        0.00000    0.00000    0.02562

         MAIN DIRECTIONS OF THE EFG   1.0000 -0.5775  0.0000
                                      0.5775  1.0000  0.0000
                                     -0.0000 -0.0000  1.0000
:ANG003:  ANGLE WITH OLD X-AXIS =        30.0

:ETA003:                         ASYMM. ETA =     0.64056


:VCOUL004 ATOMNUMBER=  4 Co2     VCOUL-ZERO =  0.39743E+00
:EFG004:                        EFG         =     0.06577   *10**21  V / m**2
                               V20  TOT/SRF=     0.05696     0.14250
                               V22  TOT/SRF=    -0.00000    -0.00000
                               V22M TOT/SRF=     0.00000     0.00000
                               V21  TOT/SRF=     0.00000     0.00000
                               V21M TOT/SRF=     0.00000     0.00000

             -0.03289    0.00000    0.00000       -0.03289    0.00000    0.00000
              0.00000   -0.03288    0.00000        0.00000   -0.03288    0.00000
              0.00000    0.00000    0.06577        0.00000    0.00000    0.06577

         MAIN DIRECTIONS OF THE EFG   1.0000  0.2950  0.0000
                                     -0.2950  1.0000  0.0000
                                     -0.0000 -0.0000  1.0000
:ANG004:  ANGLE WITH OLD X-AXIS =        16.4

:ETA004:                         ASYMM. ETA =     0.00014


:VCOUL005 ATOMNUMBER=  5 Tb1     VCOUL-ZERO =  0.33175E+00
:EFG005:                        EFG         =    -0.05875   *10**21  V / m**2
                               V20  TOT/SRF=    -0.05088    -0.10031
                               V22  TOT/SRF=    -0.00001    -0.00000
                               V22M TOT/SRF=    -0.00000    -0.00000
                               V21  TOT/SRF=     0.00000     0.00000
                               V21M TOT/SRF=     0.00000     0.00000

              0.02936   -0.00000    0.00000        0.02936    0.00000    0.00000
             -0.00000    0.02938    0.00000        0.00000    0.02938    0.00000
              0.00000    0.00000   -0.05875        0.00000    0.00000   -0.05875

         MAIN DIRECTIONS OF THE EFG   1.0000 -0.1618  0.0000
                                      0.1618  1.0000  0.0000
                                     -0.0000 -0.0000  1.0000
:ANG005:  ANGLE WITH OLD X-AXIS =         9.2

:ETA005:                         ASYMM. ETA =     0.00031


     HELLMANN-FEYNMAN-FORCE IN mRy/a.u. = |F|  Fx       Fy             Fz
:FHF001:   1.ATOM      0.000000000000      0.000000000000      0.000000000000      0.000000000000

     HELLMANN-FEYNMAN-FORCE IN mRy/a.u. = |F|  Fx       Fy             Fz
:FHF002:   2.ATOM      0.000000000000      0.000000000000      0.000000000000      0.000000000000

     HELLMANN-FEYNMAN-FORCE IN mRy/a.u. = |F|  Fx       Fy             Fz
:FHF003:   3.ATOM      0.000000000000      0.000000000000      0.000000000000      0.000000000000

     HELLMANN-FEYNMAN-FORCE IN mRy/a.u. = |F|  Fx       Fy             Fz
:FHF004:   4.ATOM      0.117430360388      0.117371487300     -0.003717998100      0.000000000000

     HELLMANN-FEYNMAN-FORCE IN mRy/a.u. = |F|  Fx       Fy             Fz
:FHF005:   5.ATOM      0.000000000000      0.000000000000      0.000000000000      0.000000000000

:FIT001: LUSE= 13 SIGMA OF V-XC FIT FOR ATOM  1  0.7059986E-03
:FIT001: LUSE= 13 SIGMA OF V-XC FIT FOR ATOM  1  0.9942214E-03
:FIT002: LUSE= 13 SIGMA OF V-XC FIT FOR ATOM  2  0.5570787E-03
:FIT002: LUSE= 13 SIGMA OF V-XC FIT FOR ATOM  2  0.1019206E-02
:FIT003: LUSE= 13 SIGMA OF V-XC FIT FOR ATOM  3  0.7059987E-03
:FIT003: LUSE= 13 SIGMA OF V-XC FIT FOR ATOM  3  0.9942212E-03
:FIT004: LUSE= 13 SIGMA OF V-XC FIT FOR ATOM  4  0.7020062E-03
:FIT004: LUSE= 13 SIGMA OF V-XC FIT FOR ATOM  4  0.8029772E-03
:FIT005: LUSE= 13 SIGMA OF V-XC FIT FOR ATOM  5  0.3583912E-03
:FIT005: LUSE= 13 SIGMA OF V-XC FIT FOR ATOM  5  0.5521157E-03
:DEN  : DENSITY INTEGRAL  =        -14912.24498700   (Ry)
       ELS_POTENTIAL_AT Z=0 and Z=0.5:  -0.58359  -0.26769
       ELS_POTENTIAL_AT Y=0 and Y=0.5:  -0.29770  -0.25890
:VZERO:v0,v0c,v0x  -1.26466  -0.58359  -0.68107 v5,v5c,v5x  -0.92751  -0.26769  -0.65982
:VZERY:v0,v0c,v0x  -0.96781  -0.29770  -0.67010 v5,v5c,v5x  -0.97708  -0.25890  -0.71818
:VZERX:v0,v0c,v0x  -0.96771  -0.29770  -0.67001 v5,v5c,v5x  -0.97704  -0.25885  -0.71819
:LMAX-WF:   10   Non-Spherical LMAX:   6

          ATOMIC SPHERE DEPENDENT PARAMETERS FOR ATOM  Co1       
:e__0001: OVERALL ENERGY PARAMETER IS    0.3000
          OVERALL BASIS SET ON ATOM IS LAPW
:E1_0001: E( 1)=    0.3000
             APW+lo
:E1_0001: E( 1)=   -3.9228   E(BOTTOM)=   -3.958   E(TOP)=   -3.888  1  2   165
             LOCAL ORBITAL
:E2_0001: E( 2)=    0.2453   E(BOTTOM)=    0.007   E(TOP)=    0.483  0  1   121
             APW+lo
:E0_0001: E( 0)=    0.3000
             APW+lo

          ATOMIC SPHERE DEPENDENT PARAMETERS FOR ATOM  Co1       
:e__0002: OVERALL ENERGY PARAMETER IS    0.3000
          OVERALL BASIS SET ON ATOM IS LAPW
:E1_0002: E( 1)=    0.3000
             APW+lo
:E1_0002: E( 1)=   -3.9228   E(BOTTOM)=   -3.958   E(TOP)=   -3.888  1  2   160
             LOCAL ORBITAL
:E2_0002: E( 2)=    0.2453   E(BOTTOM)=    0.007   E(TOP)=    0.483  0  1   124
             APW+lo
:E0_0002: E( 0)=    0.3000
             APW+lo

          ATOMIC SPHERE DEPENDENT PARAMETERS FOR ATOM  Co1       
:e__0003: OVERALL ENERGY PARAMETER IS    0.3000
          OVERALL BASIS SET ON ATOM IS LAPW
:E1_0003: E( 1)=    0.3000
             APW+lo
:E1_0003: E( 1)=   -3.9228   E(BOTTOM)=   -3.958   E(TOP)=   -3.888  1  2   168
             LOCAL ORBITAL
:E2_0003: E( 2)=    0.2453   E(BOTTOM)=    0.007   E(TOP)=    0.483  0  1   124
             APW+lo
:E0_0003: E( 0)=    0.3000
             APW+lo

          ATOMIC SPHERE DEPENDENT PARAMETERS FOR ATOM  Co2       
:e__0004: OVERALL ENERGY PARAMETER IS    0.3000
          OVERALL BASIS SET ON ATOM IS LAPW
:E1_0004: E( 1)=    0.3000
             APW+lo
:E1_0004: E( 1)=   -3.9362   E(BOTTOM)=   -3.971   E(TOP)=   -3.901  1  2   165
             LOCAL ORBITAL
:E2_0004: E( 2)=    0.2316   E(BOTTOM)=   -0.007   E(TOP)=    0.470  0  1   133
             APW+lo
:E0_0004: E( 0)=    0.3000
             APW+lo

          ATOMIC SPHERE DEPENDENT PARAMETERS FOR ATOM  Tb1       
:e__0005: OVERALL ENERGY PARAMETER IS    0.3000
          OVERALL BASIS SET ON ATOM IS LAPW
:E0_0005: E( 0)=    0.3000
             APW+lo
:E0_0005: E( 0)=   -2.7876   E(BOTTOM)=   -2.983   E(TOP)=   -2.592  4  5   171
             LOCAL ORBITAL
:E1_0005: E( 1)=    0.7000
             APW+lo
:E1_0005: E( 1)=   -1.0712   E(BOTTOM)=   -1.505   E(TOP)=   -0.638  3  4   162
             LOCAL ORBITAL
:E3_0005: E( 3)=    0.3159   E(BOTTOM)=    0.252   E(TOP)=    0.379  0  1   111
             APW+lo
:E2_0005: E( 2)=    0.3000   E(BOTTOM)=    0.271   E(TOP)= -520.000  2 -1    83
             APW+lo

       K=  0.031250  0.031250  0.029412            1
:RKM  : MATRIX SIZE   653LOs:  80  RKM= 9.00  WEIGHT= 2.00  PGR:    
       EIGENVALUES ARE:
:EIG00001:      -3.9381036   -3.9321509   -3.9301982   -3.9282566   -3.9282127
:EIG00006:      -3.9277760   -3.9277580   -3.9170782   -3.9170017   -3.9156805
:EIG00011:      -3.9156482   -3.9119018   -3.9087546   -3.9086958   -3.9054943
:EIG00016:      -2.7529570   -1.0538427   -1.0537570   -1.0280182   -0.1472533
:EIG00021:       0.0674397    0.1468892    0.1510707    0.1514764    0.1533770
:EIG00026:       0.1539265    0.1728505    0.1734185    0.1846084    0.1867793
:EIG00031:       0.2198596    0.2205008    0.2564707    0.2571793    0.2822515
:EIG00036:       0.2944954    0.2947677    0.3155233    0.3204450    0.3211947
:EIG00041:       0.3221046    0.3255082    0.3270107    0.3272409    0.3273797
:EIG00046:       0.3307122    0.3310406    0.3333165    0.3335125    0.3843299

:EIG00051:       0.3872724    0.3964222    0.4819854    0.5388207    0.5411385
:EIG00056:       0.5673056    0.6339268    0.6581802    0.6759282    0.8530576
:EIG00061:       0.8558942    1.0449955    1.1163931    1.1207800    1.1986917
:EIG00066:       1.2277517    1.2700816    1.2786173    1.3160593    1.3430747
:EIG00071:       1.3587544    1.4911494    1.5057243    1.6002314    1.6010064
:EIG00076:       1.7530933    1.7643992    1.9645282    1.9712450    2.1162026
:EIG00081:       2.1643503    2.1790295    2.1843020    2.2262699    2.2391416
:EIG00086:       2.2623720    2.3035291    2.3267067    2.3721169    2.3730735
:EIG00091:       2.5339689    2.6375480    2.6462525    2.7065299    2.7713466
:EIG00096:       2.8094180    2.8249478    2.8280936    2.8449316    2.8663753

:EIG00101:       2.8896680    2.9080242    3.0001070    3.0131086    3.0778803
:EIG00106:       3.1067105    3.1270668    3.1369565    3.2177044    3.2205468
:EIG00111:       3.2885451    3.3488976    3.3644509    3.4281320    3.4355039
:EIG00116:       3.4691046    3.5219385    3.5786333    3.5978147    3.6434074
:EIG00121:       3.6480558    3.6980410    3.8543318    3.8929687    3.9200642
:EIG00126:       3.9208852    3.9715268    4.0182933    4.0668744    4.1181373
:EIG00131:       4.1895601    4.1956285    4.2493665    4.2735699    4.2820090
:EIG00136:       4.3023935    4.3115899    4.3220086    4.4405114    4.4458656
:EIG00141:       4.4579634    4.4690635    4.5148494    4.5382219    4.5861825
:EIG00146:       4.5948702    4.6377927    4.6567352    4.6712670    4.6811078

:EIG00151:       4.6962211    4.7494077    4.7591585    4.8086068    4.8213160
:EIG00156:       4.8619339    4.8947350    4.9057460    4.9566901    5.0180118
:EIG00161:       5.0259813    5.0529305    5.0859538    5.1531408    5.1982810
:EIG00166:       5.2084168    5.2538458    5.3183092    5.3245156    5.3288253
:EIG00171:       5.4734534
       ********************************************************

:KPT   :      NUMBER OF K-POINTS:    2176
:LMAX-WF:   10   Non-Spherical LMAX:   6

          ATOMIC SPHERE DEPENDENT PARAMETERS FOR ATOM  Co1       
:e__0001: OVERALL ENERGY PARAMETER IS    0.3000
          OVERALL BASIS SET ON ATOM IS LAPW
:E1_0001: E( 1)=    0.3000
             APW+lo
:E1_0001: E( 1)=   -3.6881   E(BOTTOM)=   -3.726   E(TOP)=   -3.650  1  2   191
             LOCAL ORBITAL
:E2_0001: E( 2)=    0.4541   E(BOTTOM)=    0.190   E(TOP)=    0.719  0  1   128
             APW+lo
:E0_0001: E( 0)=    0.3000
             APW+lo

          ATOMIC SPHERE DEPENDENT PARAMETERS FOR ATOM  Co1       
:e__0002: OVERALL ENERGY PARAMETER IS    0.3000
          OVERALL BASIS SET ON ATOM IS LAPW
:E1_0002: E( 1)=    0.3000
             APW+lo
:E1_0002: E( 1)=   -3.6882   E(BOTTOM)=   -3.726   E(TOP)=   -3.650  1  2   191
             LOCAL ORBITAL
:E2_0002: E( 2)=    0.4541   E(BOTTOM)=    0.190   E(TOP)=    0.719  0  1   130
             APW+lo
:E0_0002: E( 0)=    0.3000
             APW+lo

          ATOMIC SPHERE DEPENDENT PARAMETERS FOR ATOM  Co1       
:e__0003: OVERALL ENERGY PARAMETER IS    0.3000
          OVERALL BASIS SET ON ATOM IS LAPW
:E1_0003: E( 1)=    0.3000
             APW+lo
:E1_0003: E( 1)=   -3.6881   E(BOTTOM)=   -3.726   E(TOP)=   -3.650  1  2   192
             LOCAL ORBITAL
:E2_0003: E( 2)=    0.4541   E(BOTTOM)=    0.190   E(TOP)=    0.719  0  1   127
             APW+lo
:E0_0003: E( 0)=    0.3000
             APW+lo

          ATOMIC SPHERE DEPENDENT PARAMETERS FOR ATOM  Co2       
:e__0004: OVERALL ENERGY PARAMETER IS    0.3000
          OVERALL BASIS SET ON ATOM IS LAPW
:E1_0004: E( 1)=    0.3000
             APW+lo
:E1_0004: E( 1)=   -3.7014   E(BOTTOM)=   -3.740   E(TOP)=   -3.663  1  2   183
             LOCAL ORBITAL
:E2_0004: E( 2)=    0.4407   E(BOTTOM)=    0.176   E(TOP)=    0.705  0  1   129
             APW+lo
:E0_0004: E( 0)=    0.3000
             APW+lo

          ATOMIC SPHERE DEPENDENT PARAMETERS FOR ATOM  Tb1       
:e__0005: OVERALL ENERGY PARAMETER IS    0.3000
          OVERALL BASIS SET ON ATOM IS LAPW
:E0_0005: E( 0)=    0.3000
             APW+lo
:E0_0005: E( 0)=   -2.5786   E(BOTTOM)=   -2.791   E(TOP)=   -2.366  4  5   197
             LOCAL ORBITAL
:E1_0005: E( 1)=    0.7000
             APW+lo
:E1_0005: E( 1)=   -0.9026   E(BOTTOM)=   -1.362   E(TOP)=   -0.443  3  4   179
             LOCAL ORBITAL
:E3_0005: E( 3)=    0.6569   E(BOTTOM)=    0.575   E(TOP)=    0.739  0  1   138
             APW+lo
:E2_0005: E( 2)=    0.3735   E(BOTTOM)=    0.374   E(TOP)= -520.000  2 -1    87
             APW+lo

       K=  0.031250  0.031250  0.029412            1
:RKM  : MATRIX SIZE   653LOs:  80  RKM= 9.00  WEIGHT= 2.00  PGR:    
       EIGENVALUES ARE:
:EIG00001:      -3.7037062   -3.6973307   -3.6954591   -3.6927855   -3.6927465
:EIG00006:      -3.6923335   -3.6923116   -3.6815967   -3.6815162   -3.6802015
:EIG00011:      -3.6801617   -3.6757787   -3.6728533   -3.6727860   -3.6694582
:EIG00016:      -2.5416355   -0.8920540   -0.8919358   -0.8630482   -0.0687190
:EIG00021:       0.2232322    0.2795287    0.2874962    0.3211666    0.3303122
:EIG00026:       0.3304831    0.3345941    0.3411171    0.3619890    0.3623528
:EIG00031:       0.4116243    0.4122740    0.4464636    0.4477619    0.4922670
:EIG00036:       0.5030869    0.5034400    0.5256348    0.5256888    0.5379857
:EIG00041:       0.5472743    0.5475021    0.5772355    0.6015487    0.6135647
:EIG00046:       0.6215526    0.6242025    0.6533800    0.6565134    0.6666289

:EIG00051:       0.6734609    0.6735774    0.6898984    0.6986340    0.7047820
:EIG00056:       0.7338287    0.7501763    0.7660823    0.7980992    0.9665968
:EIG00061:       0.9693735    1.1732716    1.2346117    1.2397735    1.3105258
:EIG00066:       1.3327814    1.3760383    1.3764730    1.4030380    1.4587085
:EIG00071:       1.4618430    1.5825778    1.6020263    1.6705630    1.6788431
:EIG00076:       1.8422351    1.8532263    2.0651503    2.0707964    2.1932542
:EIG00081:       2.2226530    2.2370250    2.2515417    2.3002345    2.3167302
:EIG00086:       2.3388416    2.3810701    2.4046178    2.4516240    2.4519421
:EIG00091:       2.5887586    2.7032817    2.7138154    2.7592782    2.8505544
:EIG00096:       2.8871076    2.9166648    2.9293820    2.9351474    2.9388886

:EIG00101:       2.9736919    2.9798690    3.0538039    3.0678594    3.1617075
:EIG00106:       3.1815477    3.1861395    3.2070585    3.3020515    3.3047828
:EIG00111:       3.3632844    3.4193159    3.4485193    3.5006048    3.5029923
:EIG00116:       3.5359992    3.5921743    3.6493046    3.6753123    3.7219309
:EIG00121:       3.7230469    3.7851807    3.9285326    3.9769325    4.0036329
:EIG00126:       4.0047920    4.0374211    4.0939961    4.1487539    4.2081641
:EIG00131:       4.2606811    4.2676227    4.3196890    4.3464646    4.3506622
:EIG00136:       4.3813871    4.3973709    4.4024120    4.5189473    4.5211919
:EIG00141:       4.5285989    4.5415483    4.5866290    4.6132035    4.6460150
:EIG00146:       4.6536519    4.7026684    4.7245295    4.7326025    4.7464097

:EIG00151:       4.7566442    4.8147123    4.8281400    4.8810849    4.8936913
:EIG00156:       4.9421031    4.9603567    4.9725737    5.0421181    5.0952177
:EIG00161:       5.1042904    5.1304582    5.1590370    5.2291104    5.2844908
:EIG00166:       5.2957007    5.3260108    5.3869823    5.4064878    5.4166421
       ********************************************************

:KPT   :      NUMBER OF K-POINTS:    2176
  Potential not averaged when calculating dV/dr
   0.0   0.0 angle (M,z), angle (M,x) deg

        SPIN-ORBIT EIGENVALUES:
     K=  0.031250  0.031250  0.029412            1
      MATRIX SIZE=  341   WEIGHT= 2.00
     EIGENVALUES ARE:
          -3.9865778   -3.9853196   -3.9775615   -3.9761054   -3.9678463
          -3.9558124   -3.9502685   -3.9348358   -3.9347779   -3.9309506
          -3.8837267   -3.8819410   -3.8733938   -3.8722491   -3.8642969
          -3.7185308   -3.7172673   -3.7105772   -3.7082756   -3.6992004
          -3.6898200   -3.6828749   -3.6670914   -3.6670254   -3.6624267
          -3.6487831   -3.6466767   -3.6387536   -3.6367093   -3.6288336
          -2.7529570   -2.5416355   -1.2180558   -1.1560668   -0.9564360
          -0.8691897   -0.8101530   -0.8006748   -0.1472430   -0.0687065

           0.0673719    0.1467830    0.1508819    0.1514280    0.1531910
           0.1538570    0.1717241    0.1742646    0.1844856    0.1867013
           0.2180362    0.2218038    0.2230990    0.2552583    0.2583936
           0.2793719    0.2818237    0.2872133    0.2917300    0.2934767
           0.2973334    0.3123677    0.3161987    0.3172531    0.3203200
           0.3222210    0.3246910    0.3247967    0.3277076    0.3306736
           0.3309284    0.3339206    0.3347702    0.3360271    0.3412345
           0.3463627    0.3473264    0.3602537    0.3635056    0.3843391

           0.3881423    0.3965534    0.4096877    0.4141432    0.4453733
           0.4489194    0.4824638    0.4924088    0.5008520    0.5058828
           0.5212625    0.5301175    0.5380645    0.5389017    0.5413101
           0.5463579    0.5486741    0.5673869    0.5770330    0.5991535
           0.6135939    0.6216549    0.6238907    0.6341661    0.6504023
           0.6571776    0.6596863    0.6610348    0.6637066    0.6772078
           0.6911578    0.6979519    0.7006030    0.7049405    0.7365147
           0.7499497    0.7676457    0.7979959    0.8499461    0.8590669

           0.9633944    0.9717650    1.0450599    1.1111676    1.1261887
           1.1732921    1.1988149    1.2277475    1.2302014    1.2441327
           1.2700195    1.2777357    1.3104182    1.3159569    1.3327078
           1.3430329    1.3600134    1.3734929    1.3768690    1.4037097
           1.4583113    1.4623307    1.4912925    1.5060014    1.5820857
           1.5996741    1.6009534    1.6054598    1.6706945    1.6761036
           1.7532481    1.7702863    1.8391047    1.8587270
       ********************************************************
:GAP (global)   :    0.0    Ry =     0.0   eV (metal)
:GAP (this spin):    0.0    Ry =     0.0   eV (metal)
         Bandranges (emin - emax) and occupancy:
:BAN00087:  87    0.408750    0.492096  1.00000000
:BAN00088:  88    0.410647    0.496140  1.00000000
:BAN00089:  89    0.431755    0.505965  1.00000000
:BAN00090:  90    0.442530    0.514129  1.00000000
:BAN00091:  91    0.447230    0.521534  1.00000000
:BAN00092:  92    0.453871    0.530327  0.97643192
:BAN00093:  93    0.482355    0.538065  0.92864653
:BAN00094:  94    0.485593    0.539912  0.77147559
:BAN00095:  95    0.495683    0.544277  0.28756148
:BAN00096:  96    0.511906    0.547082  0.03570276
:BAN00097:  97    0.519570    0.550166  0.00018177
:BAN00098:  98    0.532210    0.568023  0.00000000
:BAN00099:  99    0.540229    0.592478  0.00000000
:BAN00100: 100    0.546138    0.600473  0.00000000
:BAN00101: 101    0.554641    0.614862  0.00000000
:BAN00102: 102    0.563170    0.634554  0.00000000
        Energy to separate low and high energystates:   -0.19862


:NOE  : NUMBER OF ELECTRONS          =   94.000

:FER  : F E R M I - ENERGY(TETRAH.M.)=   0.5216987796
:GMA  : POTENTIAL AND CHARGE CUT-OFF  16.00 Ry**.5
 
:POS001: ATOM   -1 X,Y,Z = 0.50000 0.00000 0.50000  MULT= 1  ZZ= 27.000  Co1
 
       LMMAX 16
       LM=   0 0  2 0  2 2 -2 2  4 0  4 2 -4 2  4 4 -4 4  6 0  6 2 -6 2  6 4 -6 4  6 6 -6 6
 
:CHA001: TOTAL VALENCE CHARGE INSIDE SPHERE   1 =   7.9820    (RMT=  2.3000 )
:PCS001: PARTIAL CHARGES SPHERE =  1 S,P,D,F,PX,PY,PZ,D-Z2,D-X2Y2,D-XY,D-XZ,D-YZ
:QTL001: 0.2417 3.2168 4.5054 0.0134 1.0574 1.0817 1.0774 0.8945 0.8968 0.9061 0.9079 0.8998
        Q-s-low E-s-low   Q-p-low E-p-low   Q-d-low E-d-low   Q-f-low E-f-low
:EPL001:  0.0000 10.0000    2.9952 -3.9151    0.0000 10.0000    0.0000 10.0000
        Q-s-hi  E-s-hi    Q-p-hi  E-p-hi    Q-d-hi  E-d-hi    Q-f-hi  E-f-hi
:EPH001:  0.2415  0.1140    0.2212  0.2625    4.5044  0.2652    0.0131  0.2591
 
                      QXX         QXY         QYY         QZZ       UP TO R
:VZZ001:             1.72446    -2.53686    -1.15883    -0.56563       2.300
 
:POS002: ATOM   -2 X,Y,Z = 0.00000 0.50000 0.50000  MULT= 1  ZZ= 27.000  Co1
 
       LMMAX 16
       LM=   0 0  2 0  2 2 -2 2  4 0  4 2 -4 2  4 4 -4 4  6 0  6 2 -6 2  6 4 -6 4  6 6 -6 6
 
:CHA002: TOTAL VALENCE CHARGE INSIDE SPHERE   2 =   7.9821    (RMT=  2.3000 )
:PCS002: PARTIAL CHARGES SPHERE =  2 S,P,D,F,PX,PY,PZ,D-Z2,D-X2Y2,D-XY,D-XZ,D-YZ
:QTL002: 0.2419 3.2165 4.5055 0.0134 1.0941 1.0449 1.0774 0.8947 0.9103 0.8932 0.8956 0.9118
        Q-s-low E-s-low   Q-p-low E-p-low   Q-d-low E-d-low   Q-f-low E-f-low
:EPL002:  0.0000 10.0000    2.9952 -3.9151    0.0000 10.0000    0.0000 10.0000
        Q-s-hi  E-s-hi    Q-p-hi  E-p-hi    Q-d-hi  E-d-hi    Q-f-hi  E-f-hi
:EPH002:  0.2416  0.1140    0.2211  0.2625    4.5043  0.2652    0.0133  0.2593
 
                      QXX         QXY         QYY         QZZ       UP TO R
:VZZ002:            -2.63505    -0.01997     3.20074    -0.56569       2.300
 
:POS003: ATOM   -3 X,Y,Z = 0.50000 0.50000 0.50000  MULT= 1  ZZ= 27.000  Co1
 
       LMMAX 16
       LM=   0 0  2 0  2 2 -2 2  4 0  4 2 -4 2  4 4 -4 4  6 0  6 2 -6 2  6 4 -6 4  6 6 -6 6
 
:CHA003: TOTAL VALENCE CHARGE INSIDE SPHERE   3 =   7.9815    (RMT=  2.3000 )
:PCS003: PARTIAL CHARGES SPHERE =  3 S,P,D,F,PX,PY,PZ,D-Z2,D-X2Y2,D-XY,D-XZ,D-YZ
:QTL003: 0.2417 3.2166 4.5046 0.0133 1.0575 1.0818 1.0776 0.8947 0.8974 0.9062 0.9077 0.8998
        Q-s-low E-s-low   Q-p-low E-p-low   Q-d-low E-d-low   Q-f-low E-f-low
:EPL003:  0.0000 10.0000    2.9952 -3.9151    0.0000 10.0000    0.0000 10.0000
        Q-s-hi  E-s-hi    Q-p-hi  E-p-hi    Q-d-hi  E-d-hi    Q-f-hi  E-f-hi
:EPH003:  0.2411  0.1139    0.2211  0.2625    4.5042  0.2652    0.0131  0.2592
 
                      QXX         QXY         QYY         QZZ       UP TO R
:VZZ003:             1.73797     2.51422    -1.16533    -0.57265       2.300
 
:POS004: ATOM   -4 X,Y,Z = 0.33333 0.66667 0.00000  MULT= 2  ZZ= 27.000  Co2
 
       LMMAX 28
       LM=   0 0  1 1 -1 1  2 0  2 2 -2 2  3 1 -3 1  3 3 -3 3  4 0  4 2 -4 2  4 4 -4 4  5 1 -5 1
         5 3 -5 3  5 5 -5 5  6 0  6 2 -6 2  6 4 -6 4  6 6 -6 6
 
:CHA004: TOTAL VALENCE CHARGE INSIDE SPHERE   4 =   7.9995    (RMT=  2.3000 )
:PCS004: PARTIAL CHARGES SPHERE =  4 S,P,D,F,PX,PY,PZ,D-Z2,D-X2Y2,D-XY,D-XZ,D-YZ
:QTL004: 0.2523 3.2187 4.5121 0.0128 1.0631 1.0632 1.0927 0.9103 0.9089 0.9089 0.8920 0.8923
        Q-s-low E-s-low   Q-p-low E-p-low   Q-d-low E-d-low   Q-f-low E-f-low
:EPL004:  0.0024 -1.1393    2.9958 -3.9271    0.0025 -1.3731    0.0000 10.0000
        Q-s-hi  E-s-hi    Q-p-hi  E-p-hi    Q-d-hi  E-d-hi    Q-f-hi  E-f-hi
:EPH004:  0.2501  0.1335    0.2225  0.2740    4.5096  0.2520    0.0128  0.2686
 
                      QXX         QXY         QYY         QZZ       UP TO R
:VZZ004:             1.06270    -0.00291     1.06612    -2.12880       2.300
 
:POS005: ATOM   -5 X,Y,Z = 0.00000 0.00000 0.00000  MULT= 1  ZZ= 65.000  Tb1
 
       LMMAX 16
       LM=   0 0  2 0  2 2 -2 2  4 0  4 2 -4 2  4 4 -4 4  6 0  6 2 -6 2  6 4 -6 4  6 6 -6 6
 
:CHA005: TOTAL VALENCE CHARGE INSIDE SPHERE   5 =  11.0241    (RMT=  2.5000 )
:PCS005: PARTIAL CHARGES SPHERE =  5 S,P,D,F,PX,PY,PZ,D-Z2,D-X2Y2,D-XY,D-XZ,D-YZ
:QTL005: 1.0479 2.8714 0.2358 6.8667 0.9594 0.9593 0.9520 0.0318 0.0654 0.0651 0.0367 0.0369
        Q-s-low E-s-low   Q-p-low E-p-low   Q-d-low E-d-low   Q-f-low E-f-low
:EPL005:  0.9856 -2.7527    2.7780 -1.0549    0.0000 10.0000    0.0000 10.0000
        Q-s-hi  E-s-hi    Q-p-hi  E-p-hi    Q-d-hi  E-d-hi    Q-f-hi  E-f-hi
:EPH005:  0.0629  0.2037    0.0937  0.2412    0.2357  0.2988    6.8667  0.3260
 
                      QXX         QXY         QYY         QZZ       UP TO R
:VZZ005:            -3.42053    -0.04711    -3.36550     6.78608       2.500
 
:CHA  : TOTAL VALENCE CHARGE INSIDE UNIT CELL =      54.564482
 
:SUM  : SUM OF EIGENVALUES =         -55.326593184
 
:GAP (global)   :    0.0    Ry =     0.0   eV (metal)
:GAP (this spin):    0.0    Ry =     0.0   eV (metal)
         Bandranges (emin - emax) and occupancy:
:BAN00087:  87    0.408750    0.492096  1.00000000
:BAN00088:  88    0.410647    0.496140  1.00000000
:BAN00089:  89    0.431755    0.505965  1.00000000
:BAN00090:  90    0.442530    0.514129  1.00000000
:BAN00091:  91    0.447230    0.521534  1.00000000
:BAN00092:  92    0.453871    0.530327  0.97643192
:BAN00093:  93    0.482355    0.538065  0.92864653
:BAN00094:  94    0.485593    0.539912  0.77147559
:BAN00095:  95    0.495683    0.544277  0.28756148
:BAN00096:  96    0.511906    0.547082  0.03570276
:BAN00097:  97    0.519570    0.550166  0.00018177
:BAN00098:  98    0.532210    0.568023  0.00000000
:BAN00099:  99    0.540229    0.592478  0.00000000
:BAN00100: 100    0.546138    0.600473  0.00000000
:BAN00101: 101    0.554641    0.614862  0.00000000
:BAN00102: 102    0.563170    0.634554  0.00000000
        Energy to separate low and high energystates:   -0.19862


:NOE  : NUMBER OF ELECTRONS          =   94.000

:FER  : F E R M I - ENERGY(TETRAH.M.)=   0.5216987796
:GMA  : POTENTIAL AND CHARGE CUT-OFF  16.00 Ry**.5
 
:POS001: ATOM   -1 X,Y,Z = 0.50000 0.00000 0.50000  MULT= 1  ZZ= 27.000  Co1
 
       LMMAX 16
       LM=   0 0  2 0  2 2 -2 2  4 0  4 2 -4 2  4 4 -4 4  6 0  6 2 -6 2  6 4 -6 4  6 6 -6 6
 
:CHA001: TOTAL VALENCE CHARGE INSIDE SPHERE   1 =   6.1621    (RMT=  2.3000 )
:PCS001: PARTIAL CHARGES SPHERE =  1 S,P,D,F,PX,PY,PZ,D-Z2,D-X2Y2,D-XY,D-XZ,D-YZ
:QTL001: 0.2394 3.2210 2.6851 0.0127 1.0603 1.0827 1.0781 0.5809 0.5481 0.5111 0.5043 0.5408
        Q-s-low E-s-low   Q-p-low E-p-low   Q-d-low E-d-low   Q-f-low E-f-low
:EPL001:  0.0000 10.0000    2.9952 -3.6795    0.0000 10.0000    0.0000 10.0000
        Q-s-hi  E-s-hi    Q-p-hi  E-p-hi    Q-d-hi  E-d-hi    Q-f-hi  E-f-hi
:EPH001:  0.2383  0.1873    0.2260  0.3437    2.6842  0.4027    0.0126  0.4016
 
                      QXX         QXY         QYY         QZZ       UP TO R
:VZZ001:             2.05635    -1.82790    -0.05931    -1.99702       2.300
 
:POS002: ATOM   -2 X,Y,Z = 0.00000 0.50000 0.50000  MULT= 1  ZZ= 27.000  Co1
 
       LMMAX 16
       LM=   0 0  2 0  2 2 -2 2  4 0  4 2 -4 2  4 4 -4 4  6 0  6 2 -6 2  6 4 -6 4  6 6 -6 6
 
:CHA002: TOTAL VALENCE CHARGE INSIDE SPHERE   2 =   6.1622    (RMT=  2.3000 )
:PCS002: PARTIAL CHARGES SPHERE =  2 S,P,D,F,PX,PY,PZ,D-Z2,D-X2Y2,D-XY,D-XZ,D-YZ
:QTL002: 0.2393 3.2212 2.6851 0.0128 1.0943 1.0488 1.0781 0.5810 0.4923 0.5667 0.5593 0.4857
        Q-s-low E-s-low   Q-p-low E-p-low   Q-d-low E-d-low   Q-f-low E-f-low
:EPL002:  0.0000 10.0000    2.9952 -3.6795    0.0000 10.0000    0.0000 10.0000
        Q-s-hi  E-s-hi    Q-p-hi  E-p-hi    Q-d-hi  E-d-hi    Q-f-hi  E-f-hi
:EPH002:  0.2386  0.1873    0.2262  0.3437    2.6844  0.4027    0.0124  0.4017
 
                      QXX         QXY         QYY         QZZ       UP TO R
:VZZ002:            -1.11359     0.00238     3.11094    -1.99738       2.300
 
:POS003: ATOM   -3 X,Y,Z = 0.50000 0.50000 0.50000  MULT= 1  ZZ= 27.000  Co1
 
       LMMAX 16
       LM=   0 0  2 0  2 2 -2 2  4 0  4 2 -4 2  4 4 -4 4  6 0  6 2 -6 2  6 4 -6 4  6 6 -6 6
 
:CHA003: TOTAL VALENCE CHARGE INSIDE SPHERE   3 =   6.1617    (RMT=  2.3000 )
:PCS003: PARTIAL CHARGES SPHERE =  3 S,P,D,F,PX,PY,PZ,D-Z2,D-X2Y2,D-XY,D-XZ,D-YZ
:QTL003: 0.2390 3.2212 2.6844 0.0128 1.0603 1.0830 1.0780 0.5805 0.5481 0.5108 0.5039 0.5411
        Q-s-low E-s-low   Q-p-low E-p-low   Q-d-low E-d-low   Q-f-low E-f-low
:EPL003:  0.0000 10.0000    2.9952 -3.6795    0.0000 10.0000    0.0000 10.0000
        Q-s-hi  E-s-hi    Q-p-hi  E-p-hi    Q-d-hi  E-d-hi    Q-f-hi  E-f-hi
:EPH003:  0.2383  0.1873    0.2262  0.3437    2.6836  0.4027    0.0126  0.4016
 
                      QXX         QXY         QYY         QZZ       UP TO R
:VZZ003:             2.06558     1.84082    -0.05980    -2.00578       2.300
 
:POS004: ATOM   -4 X,Y,Z = 0.33333 0.66667 0.00000  MULT= 2  ZZ= 27.000  Co2
 
       LMMAX 28
       LM=   0 0  1 1 -1 1  2 0  2 2 -2 2  3 1 -3 1  3 3 -3 3  4 0  4 2 -4 2  4 4 -4 4  5 1 -5 1
         5 3 -5 3  5 5 -5 5  6 0  6 2 -6 2  6 4 -6 4  6 6 -6 6
 
:CHA004: TOTAL VALENCE CHARGE INSIDE SPHERE   4 =   6.4290    (RMT=  2.3000 )
:PCS004: PARTIAL CHARGES SPHERE =  4 S,P,D,F,PX,PY,PZ,D-Z2,D-X2Y2,D-XY,D-XZ,D-YZ
:QTL004: 0.2329 3.2163 2.9648 0.0128 1.0604 1.0602 1.0964 0.5563 0.6200 0.6200 0.5844 0.5844
        Q-s-low E-s-low   Q-p-low E-p-low   Q-d-low E-d-low   Q-f-low E-f-low
:EPL004:  0.0026 -0.9861    2.9952 -3.6912    0.0032 -1.2392    0.0000 10.0000
        Q-s-hi  E-s-hi    Q-p-hi  E-p-hi    Q-d-hi  E-d-hi    Q-f-hi  E-f-hi
:EPH004:  0.2304  0.1841    0.2201  0.3455    2.9623  0.4023    0.0120  0.4143
 
                      QXX         QXY         QYY         QZZ       UP TO R
:VZZ004:            -0.05181     0.01205    -0.06498     0.11681       2.300
 
:POS005: ATOM   -5 X,Y,Z = 0.00000 0.00000 0.00000  MULT= 1  ZZ= 65.000  Tb1
 
       LMMAX 16
       LM=   0 0  2 0  2 2 -2 2  4 0  4 2 -4 2  4 4 -4 4  6 0  6 2 -6 2  6 4 -6 4  6 6 -6 6
 
:CHA005: TOTAL VALENCE CHARGE INSIDE SPHERE   5 =   4.2679    (RMT=  2.5000 )
:PCS005: PARTIAL CHARGES SPHERE =  5 S,P,D,F,PX,PY,PZ,D-Z2,D-X2Y2,D-XY,D-XZ,D-YZ
:QTL005: 1.0423 2.8551 0.2547 0.1133 0.9534 0.9536 0.9480 0.0364 0.0625 0.0622 0.0471 0.0473
        Q-s-low E-s-low   Q-p-low E-p-low   Q-d-low E-d-low   Q-f-low E-f-low
:EPL005:  0.9824 -2.5413    2.7427 -0.8931    0.0000 10.0000    0.0000 10.0000
        Q-s-hi  E-s-hi    Q-p-hi  E-p-hi    Q-d-hi  E-d-hi    Q-f-hi  E-f-hi
:EPH005:  0.0594  0.2474    0.1127  0.3329    0.2547  0.3736    0.1131  0.3992
 
                      QXX         QXY         QYY         QZZ       UP TO R
:VZZ005:            -1.65498    -0.00034    -1.65459     3.30951       2.500
 
:CHA  : TOTAL VALENCE CHARGE INSIDE UNIT CELL =      39.435522
 
:SUM  : SUM OF EIGENVALUES =         -52.892780577
 

        1.ATOM      Co1                   5 CORE STATES
:1S 001: 1S                -556.892924096 Ry
:2S 001: 2S                 -65.049348865 Ry
:2PP001: 2P*                -56.279521815 Ry
:2P 001: 2P                 -55.191392014 Ry
:3S 001: 3S                  -6.614714778 Ry

        2.ATOM      Co1                   5 CORE STATES
:1S 002: 1S                -556.892930590 Ry
:2S 002: 2S                 -65.049355364 Ry
:2PP002: 2P*                -56.279528313 Ry
:2P 002: 2P                 -55.191398512 Ry
:3S 002: 3S                  -6.614722315 Ry

        3.ATOM      Co1                   5 CORE STATES
:1S 003: 1S                -556.892922574 Ry
:2S 003: 2S                 -65.049347344 Ry
:2PP003: 2P*                -56.279520294 Ry
:2P 003: 2P                 -55.191390493 Ry
:3S 003: 3S                  -6.614713256 Ry

        4.ATOM      Co2                   5 CORE STATES
       CORE-FORCE in mRy/a.u. = |F|      Fx             Fy             Fz
:FCO004:   4.ATOM      0.048978132541     -0.048950202544      0.001653825307      0.000000000000

:1S 004: 1S                -556.905437689 Ry
:2S 004: 2S                 -65.061959537 Ry
:2PP004: 2P*                -56.292111357 Ry
:2P 004: 2P                 -55.203983665 Ry
:3S 004: 3S                  -6.628017308 Ry

        5.ATOM      Tb1                  14 CORE STATES
:1S 005: 1S               -3806.944616609 Ry
:2S 005: 2S                -630.168838152 Ry
:2PP005: 2P*               -598.753002839 Ry
:2P 005: 2P                -543.881139677 Ry
:3S 005: 3S                -139.372518086 Ry
:3PP005: 3P*               -125.717511023 Ry
:3P 005: 3P                -114.402846912 Ry
:3DD005: 3D*                -90.891291675 Ry
:3D 005: 3D                 -88.423957579 Ry
:4S 005: 4S                 -27.260774669 Ry
:4PP005: 4P*                -21.912797419 Ry
:4P 005: 4P                 -19.381834007 Ry
:4DD005: 4D*                -10.577225552 Ry
:4D 005: 4D                 -10.118287760 Ry

        1.ATOM      Co1                   5 CORE STATES
:1S 001: 1S                -556.893129623 Ry
:2S 001: 2S                 -64.937677480 Ry
:2PP001: 2P*                -56.196982022 Ry
:2P 001: 2P                 -55.106254558 Ry
:3S 001: 3S                  -6.373866816 Ry

        2.ATOM      Co1                   5 CORE STATES
:1S 002: 1S                -556.893136117 Ry
:2S 002: 2S                 -64.937683979 Ry
:2PP002: 2P*                -56.196988520 Ry
:2P 002: 2P                 -55.106261056 Ry
:3S 002: 3S                  -6.373871607 Ry

        3.ATOM      Co1                   5 CORE STATES
:1S 003: 1S                -556.893128101 Ry
:2S 003: 2S                 -64.937675959 Ry
:2PP003: 2P*                -56.196980501 Ry
:2P 003: 2P                 -55.106253037 Ry
:3S 003: 3S                  -6.373865294 Ry

        4.ATOM      Co2                   5 CORE STATES
       CORE-FORCE in mRy/a.u. = |F|      Fx             Fy             Fz
:FCO004:   4.ATOM      0.047647649123     -0.047618938549      0.001653831449      0.000000000000

:1S 004: 1S                -556.905641499 Ry
:2S 004: 2S                 -64.950272721 Ry
:2PP004: 2P*                -56.209558972 Ry
:2P 004: 2P                 -55.118833331 Ry
:3S 004: 3S                  -6.387066187 Ry

        5.ATOM      Tb1                  14 CORE STATES
:1S 005: 1S               -3806.944601699 Ry
:2S 005: 2S                -630.163304716 Ry
:2PP005: 2P*               -598.749769725 Ry
:2P 005: 2P                -543.876687190 Ry
:3S 005: 3S                -139.199665732 Ry
:3PP005: 3P*               -125.561681768 Ry
:3P 005: 3P                -114.223329110 Ry
:3DD005: 3D*                -90.762259274 Ry
:3D 005: 3D                 -88.288905927 Ry
:4S 005: 4S                 -26.867611544 Ry
:4PP005: 4P*                -21.520222848 Ry
:4P 005: 4P                 -18.994058854 Ry
:4DD005: 4D*                -10.191535295 Ry
:4D 005: 4D                  -9.734380088 Ry
:CINT001 Core Integral Atom   1 Up    5.99960915 Dn   5.999566 Total  11.99917473
:CINT002 Core Integral Atom   2 Up    5.99960893 Dn   5.999566 Total  11.99917486
:CINT003 Core Integral Atom   3 Up    5.99960915 Dn   5.999566 Total  11.99917473
:CINT004 Core Integral Atom   4 Up    5.99960875 Dn   5.999566 Total  11.99917462
:CINT005 Core Integral Atom   5 Up   22.99997624 Dn  22.999972 Total  45.99994861

       DENSITY AT NUCLEUS
        JATOM        VALENCE       SEMI-CORE          CORE           TOTAL
:RTO001:   1        8.621276        0.000000    17495.962050    17504.583325
:RTO002:   2        8.621301        0.000000    17495.962109    17504.583410
:RTO003:   3        8.620217        0.000000    17495.962050    17504.582267
:RTO004:   4        8.728362        0.000000    17495.942685    17504.671047
:RTO005:   5     1230.273519        0.000000  1219623.699687  1220853.973206

       HYPERFINE FIELDS FOR THOMSON RADIUS
:HFF001:           45.846           0.000        -362.599        -316.754 (KGAUSS)
:HFF002:           45.899           0.000        -362.706        -316.807 (KGAUSS)
:HFF003:           45.434           0.000        -362.599        -317.165 (KGAUSS)
:HFF004:          194.384           0.000        -363.497        -169.113 (KGAUSS)
:HFF005:         2436.324           0.000       -2547.920        -111.596 (KGAUSS)
:K-LIST:Reduced k-vector list    19745    2293
     
       CHARGES OF NEW CHARGE DENSITY
:NTO   : INTERSTITIAL      UP =     3.595202 DN =     3.824162 TOT =     7.419364
:NPC   : INTERSTITIAL      UP =    10.853824 DN =    10.175435 TOT =    21.029259
:NTO001: CHARGE SPHERE   1 UP =   13.981682 DN =   12.161595 TOT =   26.143276
:NTO002: CHARGE SPHERE   2 UP =   13.981698 DN =   12.161665 TOT =   26.143363
:NTO003: CHARGE SPHERE   3 UP =   13.981307 DN =   12.161025 TOT =   26.142332
:NTO004: CHARGE SPHERE   4 UP =   13.999266 DN =   12.428630 TOT =   26.427896
:NTO005: CHARGE SPHERE   5 UP =   34.024080 DN =   27.267614 TOT =   61.291695

:NEC01: NUCLEAR AND ELECTRONIC CHARGE    200.00000000   199.99582222 Plane Wave
     
       CHARGES OF OLD CHARGE DENSITY
:OTO   : INTERSTITIAL      UP =     4.022649 DN =     3.282715 TOT =     7.305364
:OPC   : INTERSTITIAL      UP =     4.614432 DN =     9.578846 TOT =    14.193278
:OTO001: CHARGE SPHERE   1 UP =   14.474701 DN =   11.521584 TOT =   25.996285
:OTO002: CHARGE SPHERE   2 UP =   14.474698 DN =   11.521582 TOT =   25.996280
:OTO003: CHARGE SPHERE   3 UP =   14.474701 DN =   11.521584 TOT =   25.996285
:OTO004: CHARGE SPHERE   4 UP =   14.477810 DN =   11.516740 TOT =   25.994549
:OTO005: CHARGE SPHERE   5 UP =   34.620218 DN =   28.119049 TOT =   62.739267

:NEC02: NUCLEAR AND ELECTRONIC CHARGE    200.00000000   200.02257971 Total

:VSOld: Total Rescaling   0.99988711
     
       CONVERGENCE TEST
:DTO001: DIFFERENCE SPHERE  1 UP =  0.6347923 DN =  0.5778211 TOT =  1.2126134
:DTO002: DIFFERENCE SPHERE  2 UP =  0.6347795 DN =  0.5779136 TOT =  1.2126931
:DTO003: DIFFERENCE SPHERE  3 UP =  0.6352749 DN =  0.5771657 TOT =  1.2124406
:DTO004: DIFFERENCE SPHERE  4 UP =  0.6263214 DN =  0.9054585 TOT =  1.5317799
:DTO005: DIFFERENCE SPHERE  5 UP =  0.3750631 DN =  1.4397399 TOT =  1.8148030

:DIS  :  CHARGE DISTANCE      (  1.4397399 for atom    5 spin 2)      2.8387033
 
******************************************************
* Multisecant Mixing Release 10.8.9                  *
* Standard Mode with step bound                      *
* Multisecant MSR1 Algorithm                         *
* Regularization       2.000E-04                     *
* Minimum Greed        1.000E-03                     *
* Max Number of Memory Steps    8                    *
******************************************************
 

:FULLRMS/Atom   1.4798205892
:PLANE:  PW /ATOM     0.74458 DISTAN   7.04E-01 %  9.46E+01
:CHARG:  CLM/ATOM   260.58628 DISTAN   7.45E-01 %  2.86E-01

Step History
        Dmix         Dmixt        Red     Pred      Step      Lambda    MagAbs    Beta
  1   3.5000E-01   3.5000E-01  1.00E+00  1.00E+00  1.00E-01  1.00E+00  1.27E-01  1.00E+00
:NOTE :  :INFO: Pratt in use
:TRUST:  Step  1.0E-01 Charge  3.3E-02 (e) CTO  2.2E-01 (e) PW  2.0E-01 (e)
:DIRP : |PRAT|= 6.335E-03 |PRATT|= 2.490E+00 ANGLE=   0.0 DEGREES
:DIRQ : |PRAT|= 6.703E-03 |PRATT|= 2.634E+00 ANGLE=   0.0 DEGREES
:DIRT : |PRAT|= 9.223E-03 |PRATT|= 3.625E+00 ANGLE=   0.0 DEGREES
  
:INFO: Pseudo Compensation for mesh of   64
  
:INFO: Pseudo Compensation Rescaling     1.00443E+00
  
:INFO: Pseudo Compensation Rescaling     1.00332E+00
  
:MIX  :  PRATT  REGULARIZATION:  2.00E-04 GREED: 0.00254                 
     
       CHARGES OF MIXED CHARGE DENSITY
:CTO   : INTERSTITIAL      UP =     4.021114 DN =     3.283728 TOT =     7.304842
:CPC   : INTERSTITIAL      UP =     7.421128 DN =     9.439552 TOT =    16.860680
:CTO001: CHARGE SPHERE   1 UP =   14.471817 DN =   11.521915 TOT =   25.993732
:CTO002: CHARGE SPHERE   2 UP =   14.471814 DN =   11.521914 TOT =   25.993727
:CTO003: CHARGE SPHERE   3 UP =   14.471816 DN =   11.521913 TOT =   25.993729
:CTO004: CHARGE SPHERE   4 UP =   14.474962 DN =   11.517763 TOT =   25.992725
:CTO005: CHARGE SPHERE   5 UP =   34.614803 DN =   28.113716 TOT =   62.728519

       SPIN MAGNETIC MOMENTS OF MIXED CHARGE DENSITY
:MMINT:  MAGNETIC MOMENT IN INTERSTITIAL  =    0.73739
:MMI001: MAGNETIC MOMENT IN SPHERE   1    =    2.94990
:MMI002: MAGNETIC MOMENT IN SPHERE   2    =    2.94990
:MMI003: MAGNETIC MOMENT IN SPHERE   3    =    2.94990
:MMI004: MAGNETIC MOMENT IN SPHERE   4    =    2.95720
:MMI005: MAGNETIC MOMENT IN SPHERE   5    =    6.50109
:MMTOT:  SPIN MAGNETIC MOMENT IN CELL     =   22.00257

:NEC03: NUCLEAR AND ELECTRONIC CHARGE    200.00000000   200.00000000

PW CHANGE     H    K    L      Current       Change    Residue
:PUP001:      0    0    0  2.00587026E-02  4.919E-03  1.020E-02
:PUP002:     -1    0    0  1.65360374E-03  2.914E-03  3.225E-03
:PUP003:     -1    1    0  1.65371927E-03  2.914E-03  3.225E-03
:PUP004:      0   -1    0  1.65382453E-03  2.915E-03  3.225E-03
:PUP005:      0    0   -1  3.88801087E-03  3.634E-03  6.094E-03
:PUP006:     -1    0   -1  3.86994707E-03  3.774E-03  6.753E-03
:PUP007:     -1    0    1  3.86994669E-03  3.774E-03  6.753E-03
:PUP008:     -1    1   -1  3.86983376E-03  3.774E-03  6.754E-03
:PUP009:     -1    1    1  3.86983386E-03  3.774E-03  6.754E-03
:PUP010:      0   -1   -1  3.86975751E-03  3.774E-03  6.753E-03
:PUP011:      0   -1    1  3.86975740E-03  3.774E-03  6.753E-03
:PUP012:     -2    1    0  3.29870727E-03  3.849E-03  6.868E-03
  
:PDN001:      0    0    0  2.23044132E-02 -2.399E-04  2.011E-03
:PDN002:     -1    0    0  1.82020530E-03  3.301E-03  3.960E-03
:PDN003:     -1    1    0  1.81983462E-03  3.300E-03  3.958E-03
:PDN004:      0   -1    0  1.82002309E-03  3.301E-03  3.959E-03
:PDN005:      0    0   -1  4.85405382E-03  2.768E-03  4.401E-03
:PDN006:     -1    0   -1  5.47718857E-03  1.860E-03  3.136E-03
:PDN007:     -1    0    1  5.47718856E-03  1.860E-03  3.136E-03
:PDN008:     -1    1   -1  5.47749199E-03  1.861E-03  3.137E-03
:PDN009:     -1    1    1  5.47749173E-03  1.861E-03  3.137E-03
:PDN010:      0   -1   -1  5.47734815E-03  1.860E-03  3.137E-03
:PDN011:      0   -1    1  5.47734825E-03  1.860E-03  3.137E-03
:PDN012:     -2    1    0  5.35878948E-03  1.221E-03  2.163E-03

:ENE  : ********** TOTAL ENERGY IN Ry =       -37373.13412023

:FOR001:   1.ATOM          0.000          0.000          0.000          0.000 partial forces
:FOR002:   2.ATOM          0.000          0.000          0.000          0.000 partial forces
:FOR003:   3.ATOM          0.000          0.000          0.000          0.000 partial forces
:FOR004:   4.ATOM          0.069          0.069         -0.002          0.000 partial forces
:FOR005:   5.ATOM          0.000          0.000          0.000          0.000 partial forces
       TOTAL FORCE WITH RESPECT TO THE GLOBAL COORDINATE SYSTEM:
:FGL001:   1.ATOM                 0.000000000     0.000000000     0.000000000 partial forces
:FGL002:   2.ATOM                 0.000000000     0.000000000     0.000000000 partial forces
:FGL003:   3.ATOM                 0.000000000     0.000000000     0.000000000 partial forces
:FGL004:   4.ATOM                 0.079774700     0.037823180     0.000000000 partial forces
:FGL005:   5.ATOM                 0.000000000     0.000000000     0.000000000 partial forces
 Euler-Maclaurian Coulomb
 Consistent 3/8+Simpson combinations at start/end
 New Mode for Coulomb Integral
 Extension of core to zero
 LDM version in phi
 Fifth-order quadrature in outwin
 Lebedev-Laikov Grid in lapw0


            ---------
:ITE002:  2. ITERATION
            ---------

:NATO :    5 INDEPENDENT AND    6 TOTAL ATOMS IN UNITCELL
       SUBSTANCE: blebleble                                s-o calc. M||  0.10

       LATTICE                      = H   
:LAT  : LATTICE CONSTANTS=  9.34658  9.34658  7.54001
:VOL  : UNIT CELL VOLUME =     570.43781
:POT  : POTENTIAL OPTION EX_PBE EC_PBE VX_PBE VC_PBE
       MODE OF CALCULATION IS       = RELA
       SPINPOLARIZED CALCULATION
:IFFT  : FFT-parameters:   96   96   80 Factor: 2.00


   CONVERGENCE PARAMETER FOR PSEUDOCHARGE: NCON=  9
   MAXIMAL VALUE OF RMT(JATOM)*ABSK(NKK) : RK  =39.99508


:VKCOUL :  VK-COUL convergence: 0.123E-09
 Lebedev grid of          350
 :rho_min:   2.0000000000000000E-008   1.0000000000000001E-009
:VCOUL001 ATOMNUMBER=  1 Co1     VCOUL-ZERO =  0.48519E+00
:EFG001:                        EFG         =    -0.12681   *10**21  V / m**2
                               V20  TOT/SRF=     0.01644     0.03235
                               V22  TOT/SRF=    -0.05868    -0.12277
                               V22M TOT/SRF=     0.10159     0.21270
                               V21  TOT/SRF=     0.00000     0.00000
                               V21M TOT/SRF=     0.00000     0.00000

             -0.06817    0.10159    0.00000       -0.12681    0.00000    0.00000
              0.10159    0.04919    0.00000        0.00000    0.10783    0.00000
              0.00000    0.00000    0.01898        0.00000    0.00000    0.01898

         MAIN DIRECTIONS OF THE EFG   1.0000  0.5772  0.0000
                                     -0.5772  1.0000  0.0000
                                     -0.0000 -0.0000  1.0000
:ANG001:  ANGLE WITH OLD X-AXIS =        30.0

:ETA001:                         ASYMM. ETA =     0.70069


:VCOUL002 ATOMNUMBER=  2 Co1     VCOUL-ZERO =  0.48519E+00
:EFG002:                        EFG         =    -0.12682   *10**21  V / m**2
                               V20  TOT/SRF=     0.01643     0.03235
                               V22  TOT/SRF=     0.11733     0.24560
                               V22M TOT/SRF=    -0.00005    -0.00000
                               V21  TOT/SRF=     0.00000     0.00000
                               V21M TOT/SRF=     0.00000     0.00000

              0.10785   -0.00005    0.00000        0.10785    0.00000    0.00000
             -0.00005   -0.12682    0.00000        0.00000   -0.12682    0.00000
              0.00000    0.00000    0.01897        0.00000    0.00000    0.01897

         MAIN DIRECTIONS OF THE EFG   1.0000  0.0002  0.0000
                                     -0.0002  1.0000  0.0000
                                      0.0000  0.0000  1.0000
:ANG002:  ANGLE WITH OLD X-AXIS =         0.0

:ETA002:                         ASYMM. ETA =     0.70084


:VCOUL003 ATOMNUMBER=  3 Co1     VCOUL-ZERO =  0.48519E+00
:EFG003:                        EFG         =    -0.12679   *10**21  V / m**2
                               V20  TOT/SRF=     0.01640     0.03235
                               V22  TOT/SRF=    -0.05864    -0.12277
                               V22M TOT/SRF=    -0.10162    -0.21270
                               V21  TOT/SRF=     0.00000     0.00000
                               V21M TOT/SRF=     0.00000     0.00000

             -0.06811   -0.10162    0.00000       -0.12679    0.00000    0.00000
             -0.10162    0.04917    0.00000        0.00000    0.10786    0.00000
              0.00000    0.00000    0.01894        0.00000    0.00000    0.01894

         MAIN DIRECTIONS OF THE EFG   1.0000 -0.5775  0.0000
                                      0.5775  1.0000  0.0000
                                     -0.0000 -0.0000  1.0000
:ANG003:  ANGLE WITH OLD X-AXIS =        30.0

:ETA003:                         ASYMM. ETA =     0.70128


:VCOUL004 ATOMNUMBER=  4 Co2     VCOUL-ZERO =  0.47002E+00
:EFG004:                        EFG         =     0.06087   *10**21  V / m**2
                               V20  TOT/SRF=     0.05272     0.14229
                               V22  TOT/SRF=     0.00001    -0.00000
                               V22M TOT/SRF=     0.00002    -0.00000
                               V21  TOT/SRF=     0.00000     0.00000
                               V21M TOT/SRF=     0.00000     0.00000

             -0.03043    0.00002    0.00000       -0.03041    0.00000    0.00000
              0.00002   -0.03045    0.00000        0.00000   -0.03046    0.00000
              0.00000    0.00000    0.06087        0.00000    0.00000    0.06087

         MAIN DIRECTIONS OF THE EFG   1.0000 -0.6650  0.0000
                                      0.6650  1.0000  0.0000
                                      0.0000  0.0000  1.0000
:ANG004:  ANGLE WITH OLD X-AXIS =        33.6

:ETA004:                         ASYMM. ETA =     0.00082


:VCOUL005 ATOMNUMBER=  5 Tb1     VCOUL-ZERO =  0.40299E+00
:EFG005:                        EFG         =    -0.03318   *10**21  V / m**2
                               V20  TOT/SRF=    -0.02874    -0.10014
                               V22  TOT/SRF=    -0.00008    -0.00000
                               V22M TOT/SRF=    -0.00012     0.00000
                               V21  TOT/SRF=     0.00000     0.00000
                               V21M TOT/SRF=     0.00000     0.00000

              0.01651   -0.00012    0.00000        0.01645    0.00000    0.00000
             -0.00012    0.01667    0.00000        0.00000    0.01674    0.00000
              0.00000    0.00000   -0.03318        0.00000    0.00000   -0.03318

         MAIN DIRECTIONS OF THE EFG   1.0000 -0.5384  0.0000
                                      0.5384  1.0000  0.0000
                                     -0.0000 -0.0000  1.0000
:ANG005:  ANGLE WITH OLD X-AXIS =        28.3

:ETA005:                         ASYMM. ETA =     0.00869


     HELLMANN-FEYNMAN-FORCE IN mRy/a.u. = |F|  Fx       Fy             Fz
:FHF001:   1.ATOM      0.000000000000      0.000000000000      0.000000000000      0.000000000000

     HELLMANN-FEYNMAN-FORCE IN mRy/a.u. = |F|  Fx       Fy             Fz
:FHF002:   2.ATOM      0.000000000000      0.000000000000      0.000000000000      0.000000000000

     HELLMANN-FEYNMAN-FORCE IN mRy/a.u. = |F|  Fx       Fy             Fz
:FHF003:   3.ATOM      0.000000000000      0.000000000000      0.000000000000      0.000000000000

     HELLMANN-FEYNMAN-FORCE IN mRy/a.u. = |F|  Fx       Fy             Fz
:FHF004:   4.ATOM      0.040652467164      0.040613907062      0.001770208943      0.000000000000

     HELLMANN-FEYNMAN-FORCE IN mRy/a.u. = |F|  Fx       Fy             Fz
:FHF005:   5.ATOM      0.000000000000      0.000000000000      0.000000000000      0.000000000000

:FIT001: LUSE= 13 SIGMA OF V-XC FIT FOR ATOM  1  0.7046161E-03
:FIT001: LUSE= 13 SIGMA OF V-XC FIT FOR ATOM  1  0.9952476E-03
:FIT002: LUSE= 13 SIGMA OF V-XC FIT FOR ATOM  2  0.5560374E-03
:FIT002: LUSE= 13 SIGMA OF V-XC FIT FOR ATOM  2  0.1020244E-02
:FIT003: LUSE= 13 SIGMA OF V-XC FIT FOR ATOM  3  0.7046143E-03
:FIT003: LUSE= 13 SIGMA OF V-XC FIT FOR ATOM  3  0.9952459E-03
:FIT004: LUSE= 13 SIGMA OF V-XC FIT FOR ATOM  4  0.7005213E-03
:FIT004: LUSE= 13 SIGMA OF V-XC FIT FOR ATOM  4  0.8046492E-03
:FIT005: LUSE= 13 SIGMA OF V-XC FIT FOR ATOM  5  0.3588630E-03
:FIT005: LUSE= 13 SIGMA OF V-XC FIT FOR ATOM  5  0.5524915E-03
:DEN  : DENSITY INTEGRAL  =        -14923.74453566   (Ry)
       ELS_POTENTIAL_AT Z=0 and Z=0.5:  -0.73237  -0.33895
       ELS_POTENTIAL_AT Y=0 and Y=0.5:  -0.41029  -0.29570
:VZERO:v0,v0c,v0x  -1.53678  -0.73237  -0.80441 v5,v5c,v5x  -1.06615  -0.33895  -0.72720
:VZERY:v0,v0c,v0x  -1.17949  -0.41029  -0.76920 v5,v5c,v5x  -1.06031  -0.29570  -0.76461
:VZERX:v0,v0c,v0x  -1.17949  -0.41029  -0.76919 v5,v5c,v5x  -1.06029  -0.29567  -0.76462
:LMAX-WF:   10   Non-Spherical LMAX:   6

          ATOMIC SPHERE DEPENDENT PARAMETERS FOR ATOM  Co1       
:e__0001: OVERALL ENERGY PARAMETER IS    0.3145
          OVERALL BASIS SET ON ATOM IS LAPW
:E1_0001: E( 1)=    0.3145
             APW+lo
:E1_0001: E( 1)=   -3.8547   E(BOTTOM)=   -3.890   E(TOP)=   -3.820  1  2   165
             LOCAL ORBITAL
:E2_0001: E( 2)=    0.3144   E(BOTTOM)=    0.077   E(TOP)=    0.552  0  1   121
             APW+lo
:E0_0001: E( 0)=    0.3145
             APW+lo

          ATOMIC SPHERE DEPENDENT PARAMETERS FOR ATOM  Co1       
:e__0002: OVERALL ENERGY PARAMETER IS    0.3145
          OVERALL BASIS SET ON ATOM IS LAPW
:E1_0002: E( 1)=    0.3145
             APW+lo
:E1_0002: E( 1)=   -3.8547   E(BOTTOM)=   -3.890   E(TOP)=   -3.820  1  2   162
             LOCAL ORBITAL
:E2_0002: E( 2)=    0.3144   E(BOTTOM)=    0.077   E(TOP)=    0.552  0  1   123
             APW+lo
:E0_0002: E( 0)=    0.3145
             APW+lo

          ATOMIC SPHERE DEPENDENT PARAMETERS FOR ATOM  Co1       
:e__0003: OVERALL ENERGY PARAMETER IS    0.3145
          OVERALL BASIS SET ON ATOM IS LAPW
:E1_0003: E( 1)=    0.3145
             APW+lo
:E1_0003: E( 1)=   -3.8547   E(BOTTOM)=   -3.890   E(TOP)=   -3.820  1  2   163
             LOCAL ORBITAL
:E2_0003: E( 2)=    0.3144   E(BOTTOM)=    0.077   E(TOP)=    0.552  0  1   119
             APW+lo
:E0_0003: E( 0)=    0.3145
             APW+lo

          ATOMIC SPHERE DEPENDENT PARAMETERS FOR ATOM  Co2       
:e__0004: OVERALL ENERGY PARAMETER IS    0.3145
          OVERALL BASIS SET ON ATOM IS LAPW
:E1_0004: E( 1)=    0.3145
             APW+lo
:E1_0004: E( 1)=   -3.8672   E(BOTTOM)=   -3.902   E(TOP)=   -3.832  1  2   168
             LOCAL ORBITAL
:E2_0004: E( 2)=    0.3014   E(BOTTOM)=    0.064   E(TOP)=    0.539  0  1   129
             APW+lo
:E0_0004: E( 0)=    0.3145
             APW+lo

          ATOMIC SPHERE DEPENDENT PARAMETERS FOR ATOM  Tb1       
:e__0005: OVERALL ENERGY PARAMETER IS    0.3145
          OVERALL BASIS SET ON ATOM IS LAPW
:E0_0005: E( 0)=    0.3145
             APW+lo
:E0_0005: E( 0)=   -2.7250   E(BOTTOM)=   -2.920   E(TOP)=   -2.530  4  5   179
             LOCAL ORBITAL
:E1_0005: E( 1)=    0.7145
             APW+lo
:E1_0005: E( 1)=   -1.0069   E(BOTTOM)=   -1.439   E(TOP)=   -0.575  3  4   163
             LOCAL ORBITAL
:E3_0005: E( 3)=    0.3705   E(BOTTOM)=    0.308   E(TOP)=    0.433  0  1   106
             APW+lo
:E2_0005: E( 2)=    0.3392   E(BOTTOM)=    0.339   E(TOP)= -520.000  2 -1    87
             APW+lo

       K=  0.031250  0.031250  0.029412            1
:RKM  : MATRIX SIZE   653LOs:  80  RKM= 9.00  WEIGHT= 2.00  PGR:    
       EIGENVALUES ARE:
:EIG00001:      -3.8693222   -3.8634851   -3.8617928   -3.8592768   -3.8592411
:EIG00006:      -3.8589069   -3.8588882   -3.8488846   -3.8488103   -3.8475760
:EIG00011:      -3.8475375   -3.8436218   -3.8406878   -3.8406280   -3.8374335
:EIG00016:      -2.6905655   -0.9893873   -0.9893027   -0.9637770   -0.0756719
:EIG00021:       0.1375796    0.2170091    0.2208704    0.2212519    0.2234226
:EIG00026:       0.2242346    0.2424670    0.2430181    0.2544422    0.2572109
:EIG00031:       0.2894211    0.2900612    0.3259100    0.3265871    0.3516468
:EIG00036:       0.3634017    0.3637207    0.3713508    0.3793926    0.3821700
:EIG00041:       0.3831238    0.3832901    0.3858816    0.3862460    0.3899587
:EIG00046:       0.3901236    0.3922109    0.4004989    0.4006211    0.4532806

:EIG00051:       0.4562633    0.4650388    0.5514588    0.6097084    0.6105999
:EIG00056:       0.6369730    0.7041253    0.7290132    0.7458766    0.9212233
:EIG00061:       0.9240719    1.1148708    1.1854924    1.1896983    1.2694418
:EIG00066:       1.2986872    1.3413099    1.3486519    1.3869877    1.4140886
:EIG00071:       1.4286261    1.5622000    1.5767218    1.6706197    1.6721599
:EIG00076:       1.8242757    1.8356012    2.0345755    2.0413099    2.1865772
:EIG00081:       2.2362791    2.2509918    2.2561015    2.2976726    2.3106138
:EIG00086:       2.3341739    2.3751199    2.3986137    2.4441087    2.4451343
:EIG00091:       2.6055457    2.7096828    2.7183717    2.7785273    2.8437680
:EIG00096:       2.8809323    2.8963946    2.8998539    2.9164562    2.9382053

:EIG00101:       2.9614754    2.9799173    3.0720528    3.0850114    3.1495646
:EIG00106:       3.1785229    3.1991951    3.2090238    3.2893852    3.2922528
:EIG00111:       3.3613079    3.4214804    3.4364160    3.5009336    3.5075551
:EIG00116:       3.5413369    3.5945727    3.6511245    3.6703169    3.7159700
:EIG00121:       3.7204532    3.7721587    3.9273840    3.9657061    3.9935729
:EIG00126:       3.9944879    4.0445837    4.0912260    4.1398523    4.1910276
:EIG00131:       4.2631849    4.2691237    4.3228893    4.3475449    4.3555838
:EIG00136:       4.3762514    4.3854634    4.3957976    4.5153235    4.5207950
:EIG00141:       4.5312223    4.5430094    4.5890691    4.6120976    4.6588096
:EIG00146:       4.6675151    4.7107174    4.7300538    4.7446882    4.7535458

:EIG00151:       4.7695926    4.8223257    4.8326042    4.8824113    4.8950393
:EIG00156:       4.9362818    4.9681346    4.9792208    5.0320412    5.0916830
:EIG00161:       5.0994556    5.1279292    5.1609010    5.2255380    5.2738441
:EIG00166:       5.2842076    5.3294568    5.3940404    5.3996471    5.4047935
       ********************************************************

:KPT   :      NUMBER OF K-POINTS:    2176
:LMAX-WF:   10   Non-Spherical LMAX:   6

          ATOMIC SPHERE DEPENDENT PARAMETERS FOR ATOM  Co1       
:e__0001: OVERALL ENERGY PARAMETER IS    0.3145
          OVERALL BASIS SET ON ATOM IS LAPW
:E1_0001: E( 1)=    0.3145
             APW+lo
:E1_0001: E( 1)=   -3.6202   E(BOTTOM)=   -3.658   E(TOP)=   -3.582  1  2   187
             LOCAL ORBITAL
:E2_0001: E( 2)=    0.5231   E(BOTTOM)=    0.259   E(TOP)=    0.787  0  1   126
             APW+lo
:E0_0001: E( 0)=    0.3145
             APW+lo

          ATOMIC SPHERE DEPENDENT PARAMETERS FOR ATOM  Co1       
:e__0002: OVERALL ENERGY PARAMETER IS    0.3145
          OVERALL BASIS SET ON ATOM IS LAPW
:E1_0002: E( 1)=    0.3145
             APW+lo
:E1_0002: E( 1)=   -3.6202   E(BOTTOM)=   -3.658   E(TOP)=   -3.582  1  2   194
             LOCAL ORBITAL
:E2_0002: E( 2)=    0.5231   E(BOTTOM)=    0.259   E(TOP)=    0.787  0  1   124
             APW+lo
:E0_0002: E( 0)=    0.3145
             APW+lo

          ATOMIC SPHERE DEPENDENT PARAMETERS FOR ATOM  Co1       
:e__0003: OVERALL ENERGY PARAMETER IS    0.3145
          OVERALL BASIS SET ON ATOM IS LAPW
:E1_0003: E( 1)=    0.3145
             APW+lo
:E1_0003: E( 1)=   -3.6202   E(BOTTOM)=   -3.658   E(TOP)=   -3.582  1  2   197
             LOCAL ORBITAL
:E2_0003: E( 2)=    0.5231   E(BOTTOM)=    0.259   E(TOP)=    0.787  0  1   129
             APW+lo
:E0_0003: E( 0)=    0.3145
             APW+lo

          ATOMIC SPHERE DEPENDENT PARAMETERS FOR ATOM  Co2       
:e__0004: OVERALL ENERGY PARAMETER IS    0.3145
          OVERALL BASIS SET ON ATOM IS LAPW
:E1_0004: E( 1)=    0.3145
             APW+lo
:E1_0004: E( 1)=   -3.6327   E(BOTTOM)=   -3.671   E(TOP)=   -3.595  1  2   191
             LOCAL ORBITAL
:E2_0004: E( 2)=    0.5104   E(BOTTOM)=    0.246   E(TOP)=    0.774  0  1   127
             APW+lo
:E0_0004: E( 0)=    0.3145
             APW+lo

          ATOMIC SPHERE DEPENDENT PARAMETERS FOR ATOM  Tb1       
:e__0005: OVERALL ENERGY PARAMETER IS    0.3145
          OVERALL BASIS SET ON ATOM IS LAPW
:E0_0005: E( 0)=    0.3145
             APW+lo
:E0_0005: E( 0)=   -2.5158   E(BOTTOM)=   -2.728   E(TOP)=   -2.304  4  5   199
             LOCAL ORBITAL
:E1_0005: E( 1)=    0.7145
             APW+lo
:E1_0005: E( 1)=   -0.8382   E(BOTTOM)=   -1.296   E(TOP)=   -0.380  3  4   187
             LOCAL ORBITAL
:E3_0005: E( 3)=    0.7121   E(BOTTOM)=    0.631   E(TOP)=    0.793  0  1   136
             APW+lo
:E2_0005: E( 2)=    0.4414   E(BOTTOM)=    0.441   E(TOP)= -520.000  2 -1    90
             APW+lo

       K=  0.031250  0.031250  0.029412            1
:RKM  : MATRIX SIZE   653LOs:  80  RKM= 9.00  WEIGHT= 2.00  PGR:    
       EIGENVALUES ARE:
:EIG00001:      -3.6351440   -3.6291046   -3.6270050   -3.6240570   -3.6240219
:EIG00006:      -3.6237231   -3.6237004   -3.6135689   -3.6134905   -3.6122839
:EIG00011:      -3.6122377   -3.6076883   -3.6049684   -3.6049004   -3.6015816
:EIG00016:      -2.4789374   -0.8270355   -0.8269195   -0.7983060    0.0041129
:EIG00021:       0.2940905    0.3512246    0.3590166    0.3922154    0.4005459
:EIG00026:       0.4007169    0.4051564    0.4121926    0.4319695    0.4323351
:EIG00031:       0.4818756    0.4825277    0.5165638    0.5178549    0.5617063
:EIG00036:       0.5723016    0.5726529    0.5950407    0.5950925    0.6069039
:EIG00041:       0.6162485    0.6164642    0.6471308    0.6668383    0.6823003
:EIG00046:       0.6897494    0.6921056    0.7119288    0.7149167    0.7218796

:EIG00051:       0.7287306    0.7288440    0.7530062    0.7572858    0.7737616
:EIG00056:       0.8005010    0.8186448    0.8350651    0.8675670    1.0353479
:EIG00061:       1.0381394    1.2437560    1.3045620    1.3095198    1.3818786
:EIG00066:       1.4042774    1.4470205    1.4485495    1.4746176    1.5305136
:EIG00071:       1.5320316    1.6542655    1.6735948    1.7423798    1.7500041
:EIG00076:       1.9145612    1.9255748    2.1353387    2.1410204    2.2639274
:EIG00081:       2.2956389    2.3101035    2.3244550    2.3728892    2.3890145
:EIG00086:       2.4113474    2.4533300    2.4774064    2.5244049    2.5247063
:EIG00091:       2.6612918    2.7758513    2.7863243    2.8323326    2.9237998
:EIG00096:       2.9601550    2.9888512    3.0025154    3.0076023    3.0113426

:EIG00101:       3.0467928    3.0528218    3.1264750    3.1405998    3.2343172
:EIG00106:       3.2541019    3.2595239    3.2804409    3.3745994    3.3773276
:EIG00111:       3.4372476    3.4930265    3.5211603    3.5743573    3.5754971
:EIG00116:       3.6089277    3.6651621    3.7227979    3.7487579    3.7947135
:EIG00121:       3.7957466    3.8603663    4.0032227    4.0507871    4.0785694
:EIG00126:       4.0795059    4.1118078    4.1678542    4.2226064    4.2816376
:EIG00131:       4.3351217    4.3420538    4.3942304    4.4214706    4.4252083
:EIG00136:       4.4565796    4.4722096    4.4775197    4.5934897    4.5965532
:EIG00141:       4.6042137    4.6165805    4.6618640    4.6887098    4.7198465
:EIG00146:       4.7274349    4.7771104    4.7992142    4.8069572    4.8203441

:EIG00151:       4.8309703    4.8887872    4.9027982    4.9563840    4.9687968
:EIG00156:       5.0180303    5.0344659    5.0467845    5.1180129    5.1702902
:EIG00161:       5.1791076    5.2064718    5.2349409    5.3033635    5.3602729
:EIG00166:       5.3719480    5.4025040    5.4629159    5.4824429    5.4926560
       ********************************************************

:KPT   :      NUMBER OF K-POINTS:    2176
  Potential not averaged when calculating dV/dr
   0.0   0.0 angle (M,z), angle (M,x) deg

        SPIN-ORBIT EIGENVALUES:
     K=  0.031250  0.031250  0.029412            1
      MATRIX SIZE=  340   WEIGHT= 2.00
     EIGENVALUES ARE:
          -3.9176336   -3.9163913   -3.9095042   -3.9080547   -3.8998114
          -3.8870489   -3.8813527   -3.8667652   -3.8667039   -3.8627194
          -3.8147250   -3.8129525   -3.8052848   -3.8041467   -3.7962056
          -3.6497829   -3.6485442   -3.6426333   -3.6403435   -3.6312893
          -3.6212311   -3.6141311   -3.5991543   -3.5990850   -3.5943214
          -3.5800311   -3.5779418   -3.5708158   -3.5687851   -3.5609243
          -2.6905655   -2.4789374   -1.1540253   -1.0919348   -0.8917164
          -0.8042582   -0.7452269   -0.7353606   -0.0756618    0.0041251

           0.1375111    0.2169021    0.2206723    0.2212124    0.2232482
           0.2241457    0.2413257    0.2438765    0.2543179    0.2571301
           0.2877159    0.2911207    0.2939490    0.3247180    0.3276589
           0.3483090    0.3510277    0.3512297    0.3586537    0.3602214
           0.3664128    0.3678784    0.3726349    0.3795747    0.3856196
           0.3892400    0.3907336    0.3909831    0.3945166    0.3968037
           0.4006646    0.4009103    0.4013874    0.4031886    0.4038924
           0.4053176    0.4122955    0.4301969    0.4334747    0.4533118

           0.4571610    0.4651781    0.4799404    0.4843785    0.5155594
           0.5189292    0.5518809    0.5618481    0.5700618    0.5751044
           0.5906795    0.5995066    0.6069963    0.6097686    0.6107559
           0.6153196    0.6176570    0.6370495    0.6470097    0.6632715
           0.6823251    0.6898583    0.6920126    0.7040784    0.7089496
           0.7142335    0.7180258    0.7224076    0.7300582    0.7465132
           0.7470997    0.7591669    0.7602295    0.7738777    0.8022052
           0.8184234    0.8364563    0.8674323    0.9181196    0.9272586

           1.0321284    1.0405489    1.1149346    1.1801739    1.1952147
           1.2437764    1.2695595    1.2986386    1.3000657    1.3140174
           1.3412474    1.3478240    1.3817360    1.3868218    1.4041892
           1.4140297    1.4299634    1.4446341    1.4488632    1.4751788
           1.5299726    1.5326809    1.5623482    1.5769969    1.6537311
           1.6706604    1.6721911    1.6764229    1.7425056    1.7472787
           1.8244287    1.8414824
       ********************************************************
:GAP (global)   :    0.0    Ry =     0.0   eV (metal)
:GAP (this spin):    0.0    Ry =     0.0   eV (metal)
         Bandranges (emin - emax) and occupancy:
:BAN00087:  87    0.479091    0.561538  1.00000000
:BAN00088:  88    0.481174    0.565589  1.00000000
:BAN00089:  89    0.501362    0.575219  1.00000000
:BAN00090:  90    0.512712    0.583383  1.00000000
:BAN00091:  91    0.517435    0.590948  1.00000000
:BAN00092:  92    0.523805    0.599716  0.97536553
:BAN00093:  93    0.551778    0.607130  0.92640018
:BAN00094:  94    0.555189    0.609769  0.77678488
:BAN00095:  95    0.565043    0.613871  0.28573714
:BAN00096:  96    0.581052    0.616019  0.03552112
:BAN00097:  97    0.588862    0.619903  0.00019098
:BAN00098:  98    0.601472    0.638278  0.00000000
:BAN00099:  99    0.609489    0.659415  0.00000000
:BAN00100: 100    0.615112    0.669881  0.00000000
:BAN00101: 101    0.623700    0.683673  0.00000000
:BAN00102: 102    0.632261    0.704087  0.00000000
        Energy to separate low and high energystates:   -0.12703


:NOE  : NUMBER OF ELECTRONS          =   94.000

:FER  : F E R M I - ENERGY(TETRAH.M.)=   0.5911060191
:GMA  : POTENTIAL AND CHARGE CUT-OFF  16.00 Ry**.5
 
:POS001: ATOM   -1 X,Y,Z = 0.50000 0.00000 0.50000  MULT= 1  ZZ= 27.000  Co1
 
       LMMAX 16
       LM=   0 0  2 0  2 2 -2 2  4 0  4 2 -4 2  4 4 -4 4  6 0  6 2 -6 2  6 4 -6 4  6 6 -6 6
 
:CHA001: TOTAL VALENCE CHARGE INSIDE SPHERE   1 =   7.9832    (RMT=  2.3000 )
:PCS001: PARTIAL CHARGES SPHERE =  1 S,P,D,F,PX,PY,PZ,D-Z2,D-X2Y2,D-XY,D-XZ,D-YZ
:QTL001: 0.2415 3.2154 4.5079 0.0133 1.0570 1.0811 1.0767 0.8953 0.8980 0.9065 0.9082 0.9002
        Q-s-low E-s-low   Q-p-low E-p-low   Q-d-low E-d-low   Q-f-low E-f-low
:EPL001:  0.0000 10.0000    2.9952 -3.8470    0.0000 10.0000    0.0000 10.0000
        Q-s-hi  E-s-hi    Q-p-hi  E-p-hi    Q-d-hi  E-d-hi    Q-f-hi  E-f-hi
:EPH001:  0.2412  0.1851    0.2200  0.3327    4.5073  0.3344    0.0131  0.3285
 
                      QXX         QXY         QYY         QZZ       UP TO R
:VZZ001:             1.71687    -2.53588    -1.16580    -0.55108       2.300
 
:POS002: ATOM   -2 X,Y,Z = 0.00000 0.50000 0.50000  MULT= 1  ZZ= 27.000  Co1
 
       LMMAX 16
       LM=   0 0  2 0  2 2 -2 2  4 0  4 2 -4 2  4 4 -4 4  6 0  6 2 -6 2  6 4 -6 4  6 6 -6 6
 
:CHA002: TOTAL VALENCE CHARGE INSIDE SPHERE   2 =   7.9831    (RMT=  2.3000 )
:PCS002: PARTIAL CHARGES SPHERE =  2 S,P,D,F,PX,PY,PZ,D-Z2,D-X2Y2,D-XY,D-XZ,D-YZ
:QTL002: 0.2418 3.2153 4.5080 0.0134 1.0936 1.0448 1.0767 0.8954 0.9107 0.8933 0.8960 0.9126
        Q-s-low E-s-low   Q-p-low E-p-low   Q-d-low E-d-low   Q-f-low E-f-low
:EPL002:  0.0000 10.0000    2.9952 -3.8470    0.0000 10.0000    0.0000 10.0000
        Q-s-hi  E-s-hi    Q-p-hi  E-p-hi    Q-d-hi  E-d-hi    Q-f-hi  E-f-hi
:EPH002:  0.2411  0.1852    0.2201  0.3327    4.5073  0.3344    0.0132  0.3288
 
                      QXX         QXY         QYY         QZZ       UP TO R
:VZZ002:            -2.64134    -0.01970     3.19235    -0.55105       2.300
 
:POS003: ATOM   -3 X,Y,Z = 0.50000 0.50000 0.50000  MULT= 1  ZZ= 27.000  Co1
 
       LMMAX 16
       LM=   0 0  2 0  2 2 -2 2  4 0  4 2 -4 2  4 4 -4 4  6 0  6 2 -6 2  6 4 -6 4  6 6 -6 6
 
:CHA003: TOTAL VALENCE CHARGE INSIDE SPHERE   3 =   7.9824    (RMT=  2.3000 )
:PCS003: PARTIAL CHARGES SPHERE =  3 S,P,D,F,PX,PY,PZ,D-Z2,D-X2Y2,D-XY,D-XZ,D-YZ
:QTL003: 0.2413 3.2156 4.5076 0.0133 1.0572 1.0814 1.0770 0.8950 0.8978 0.9064 0.9082 0.9002
        Q-s-low E-s-low   Q-p-low E-p-low   Q-d-low E-d-low   Q-f-low E-f-low
:EPL003:  0.0000 10.0000    2.9952 -3.8470    0.0000 10.0000    0.0000 10.0000
        Q-s-hi  E-s-hi    Q-p-hi  E-p-hi    Q-d-hi  E-d-hi    Q-f-hi  E-f-hi
:EPH003:  0.2409  0.1850    0.2204  0.3327    4.5071  0.3344    0.0131  0.3286
 
                      QXX         QXY         QYY         QZZ       UP TO R
:VZZ003:             1.72761     2.51626    -1.17791    -0.54972       2.300
 
:POS004: ATOM   -4 X,Y,Z = 0.33333 0.66667 0.00000  MULT= 2  ZZ= 27.000  Co2
 
       LMMAX 28
       LM=   0 0  1 1 -1 1  2 0  2 2 -2 2  3 1 -3 1  3 3 -3 3  4 0  4 2 -4 2  4 4 -4 4  5 1 -5 1
         5 3 -5 3  5 5 -5 5  6 0  6 2 -6 2  6 4 -6 4  6 6 -6 6
 
:CHA004: TOTAL VALENCE CHARGE INSIDE SPHERE   4 =   7.9989    (RMT=  2.3000 )
:PCS004: PARTIAL CHARGES SPHERE =  4 S,P,D,F,PX,PY,PZ,D-Z2,D-X2Y2,D-XY,D-XZ,D-YZ
:QTL004: 0.2517 3.2175 4.5128 0.0128 1.0625 1.0629 1.0920 0.9106 0.9090 0.9091 0.8921 0.8924
        Q-s-low E-s-low   Q-p-low E-p-low   Q-d-low E-d-low   Q-f-low E-f-low
:EPL004:  0.0024 -1.0762    2.9957 -3.8582    0.0024 -1.3067    0.0000 10.0000
        Q-s-hi  E-s-hi    Q-p-hi  E-p-hi    Q-d-hi  E-d-hi    Q-f-hi  E-f-hi
:EPH004:  0.2499  0.2045    0.2208  0.3441    4.5111  0.3218    0.0127  0.3375
 
                      QXX         QXY         QYY         QZZ       UP TO R
:VZZ004:             1.06342    -0.00335     1.06723    -2.13064       2.300
 
:POS005: ATOM   -5 X,Y,Z = 0.00000 0.00000 0.00000  MULT= 1  ZZ= 65.000  Tb1
 
       LMMAX 16
       LM=   0 0  2 0  2 2 -2 2  4 0  4 2 -4 2  4 4 -4 4  6 0  6 2 -6 2  6 4 -6 4  6 6 -6 6
 
:CHA005: TOTAL VALENCE CHARGE INSIDE SPHERE   5 =  11.0309    (RMT=  2.5000 )
:PCS005: PARTIAL CHARGES SPHERE =  5 S,P,D,F,PX,PY,PZ,D-Z2,D-X2Y2,D-XY,D-XZ,D-YZ
:QTL005: 1.0480 2.8722 0.2363 6.8719 0.9594 0.9595 0.9523 0.0318 0.0656 0.0654 0.0368 0.0370
        Q-s-low E-s-low   Q-p-low E-p-low   Q-d-low E-d-low   Q-f-low E-f-low
:EPL005:  0.9856 -2.6903    2.7795 -0.9905    0.0000 10.0000    0.0000 10.0000
        Q-s-hi  E-s-hi    Q-p-hi  E-p-hi    Q-d-hi  E-d-hi    Q-f-hi  E-f-hi
:EPH005:  0.0630  0.2745    0.0926  0.3115    0.2363  0.3689    6.8718  0.3804
 
                      QXX         QXY         QYY         QZZ       UP TO R
:VZZ005:            -3.44039    -0.02990    -3.40578     6.84615       2.500
 
:CHA  : TOTAL VALENCE CHARGE INSIDE UNIT CELL =      54.554969
 
:SUM  : SUM OF EIGENVALUES =         -51.676924642
 
:GAP (global)   :    0.0    Ry =     0.0   eV (metal)
:GAP (this spin):    0.0    Ry =     0.0   eV (metal)
         Bandranges (emin - emax) and occupancy:
:BAN00087:  87    0.479091    0.561538  1.00000000
:BAN00088:  88    0.481174    0.565589  1.00000000
:BAN00089:  89    0.501362    0.575219  1.00000000
:BAN00090:  90    0.512712    0.583383  1.00000000
:BAN00091:  91    0.517435    0.590948  1.00000000
:BAN00092:  92    0.523805    0.599716  0.97536553
:BAN00093:  93    0.551778    0.607130  0.92640018
:BAN00094:  94    0.555189    0.609769  0.77678488
:BAN00095:  95    0.565043    0.613871  0.28573714
:BAN00096:  96    0.581052    0.616019  0.03552112
:BAN00097:  97    0.588862    0.619903  0.00019098
:BAN00098:  98    0.601472    0.638278  0.00000000
:BAN00099:  99    0.609489    0.659415  0.00000000
:BAN00100: 100    0.615112    0.669881  0.00000000
:BAN00101: 101    0.623700    0.683673  0.00000000
:BAN00102: 102    0.632261    0.704087  0.00000000
        Energy to separate low and high energystates:   -0.12703


:NOE  : NUMBER OF ELECTRONS          =   94.000

:FER  : F E R M I - ENERGY(TETRAH.M.)=   0.5911060191
:GMA  : POTENTIAL AND CHARGE CUT-OFF  16.00 Ry**.5
 
:POS001: ATOM   -1 X,Y,Z = 0.50000 0.00000 0.50000  MULT= 1  ZZ= 27.000  Co1
 
       LMMAX 16
       LM=   0 0  2 0  2 2 -2 2  4 0  4 2 -4 2  4 4 -4 4  6 0  6 2 -6 2  6 4 -6 4  6 6 -6 6
 
:CHA001: TOTAL VALENCE CHARGE INSIDE SPHERE   1 =   6.1708    (RMT=  2.3000 )
:PCS001: PARTIAL CHARGES SPHERE =  1 S,P,D,F,PX,PY,PZ,D-Z2,D-X2Y2,D-XY,D-XZ,D-YZ
:QTL001: 0.2384 3.2187 2.6964 0.0126 1.0594 1.0820 1.0771 0.5823 0.5502 0.5134 0.5072 0.5432
        Q-s-low E-s-low   Q-p-low E-p-low   Q-d-low E-d-low   Q-f-low E-f-low
:EPL001:  0.0000 10.0000    2.9952 -3.6116    0.0000 10.0000    0.0000 10.0000
        Q-s-hi  E-s-hi    Q-p-hi  E-p-hi    Q-d-hi  E-d-hi    Q-f-hi  E-f-hi
:EPH001:  0.2379  0.2593    0.2240  0.4144    2.6953  0.4728    0.0126  0.4717
 
                      QXX         QXY         QYY         QZZ       UP TO R
:VZZ001:             2.01931    -1.78500    -0.04578    -1.97355       2.300
 
:POS002: ATOM   -2 X,Y,Z = 0.00000 0.50000 0.50000  MULT= 1  ZZ= 27.000  Co1
 
       LMMAX 16
       LM=   0 0  2 0  2 2 -2 2  4 0  4 2 -4 2  4 4 -4 4  6 0  6 2 -6 2  6 4 -6 4  6 6 -6 6
 
:CHA002: TOTAL VALENCE CHARGE INSIDE SPHERE   2 =   6.1703    (RMT=  2.3000 )
:PCS002: PARTIAL CHARGES SPHERE =  2 S,P,D,F,PX,PY,PZ,D-Z2,D-X2Y2,D-XY,D-XZ,D-YZ
:QTL002: 0.2389 3.2186 2.6967 0.0128 1.0933 1.0483 1.0773 0.5826 0.4955 0.5678 0.5616 0.4889
        Q-s-low E-s-low   Q-p-low E-p-low   Q-d-low E-d-low   Q-f-low E-f-low
:EPL002:  0.0000 10.0000    2.9952 -3.6116    0.0000 10.0000    0.0000 10.0000
        Q-s-hi  E-s-hi    Q-p-hi  E-p-hi    Q-d-hi  E-d-hi    Q-f-hi  E-f-hi
:EPH002:  0.2378  0.2593    0.2237  0.4145    2.6953  0.4728    0.0124  0.4718
 
                      QXX         QXY         QYY         QZZ       UP TO R
:VZZ002:            -1.07502     0.00164     3.04931    -1.97424       2.300
 
:POS003: ATOM   -3 X,Y,Z = 0.50000 0.50000 0.50000  MULT= 1  ZZ= 27.000  Co1
 
       LMMAX 16
       LM=   0 0  2 0  2 2 -2 2  4 0  4 2 -4 2  4 4 -4 4  6 0  6 2 -6 2  6 4 -6 4  6 6 -6 6
 
:CHA003: TOTAL VALENCE CHARGE INSIDE SPHERE   3 =   6.1701    (RMT=  2.3000 )
:PCS003: PARTIAL CHARGES SPHERE =  3 S,P,D,F,PX,PY,PZ,D-Z2,D-X2Y2,D-XY,D-XZ,D-YZ
:QTL003: 0.2385 3.2188 2.6957 0.0126 1.0597 1.0820 1.0773 0.5826 0.5496 0.5133 0.5070 0.5433
        Q-s-low E-s-low   Q-p-low E-p-low   Q-d-low E-d-low   Q-f-low E-f-low
:EPL003:  0.0000 10.0000    2.9952 -3.6116    0.0000 10.0000    0.0000 10.0000
        Q-s-hi  E-s-hi    Q-p-hi  E-p-hi    Q-d-hi  E-d-hi    Q-f-hi  E-f-hi
:EPH003:  0.2381  0.2593    0.2238  0.4144    2.6953  0.4727    0.0126  0.4718
 
                      QXX         QXY         QYY         QZZ       UP TO R
:VZZ003:             2.02818     1.79219    -0.04131    -1.98684       2.300
 
:POS004: ATOM   -4 X,Y,Z = 0.33333 0.66667 0.00000  MULT= 2  ZZ= 27.000  Co2
 
       LMMAX 28
       LM=   0 0  1 1 -1 1  2 0  2 2 -2 2  3 1 -3 1  3 3 -3 3  4 0  4 2 -4 2  4 4 -4 4  5 1 -5 1
         5 3 -5 3  5 5 -5 5  6 0  6 2 -6 2  6 4 -6 4  6 6 -6 6
 
:CHA004: TOTAL VALENCE CHARGE INSIDE SPHERE   4 =   6.4274    (RMT=  2.3000 )
:PCS004: PARTIAL CHARGES SPHERE =  4 S,P,D,F,PX,PY,PZ,D-Z2,D-X2Y2,D-XY,D-XZ,D-YZ
:QTL004: 0.2319 3.2143 2.9656 0.0127 1.0598 1.0598 1.0955 0.5576 0.6199 0.6200 0.5844 0.5846
        Q-s-low E-s-low   Q-p-low E-p-low   Q-d-low E-d-low   Q-f-low E-f-low
:EPL004:  0.0026 -0.9226    2.9952 -3.6225    0.0032 -1.1766    0.0000 10.0000
        Q-s-hi  E-s-hi    Q-p-hi  E-p-hi    Q-d-hi  E-d-hi    Q-f-hi  E-f-hi
:EPH004:  0.2294  0.2560    0.2178  0.4161    2.9639  0.4724    0.0119  0.4843
 
                      QXX         QXY         QYY         QZZ       UP TO R
:VZZ004:            -0.07066     0.01098    -0.08261     0.15330       2.300
 
:POS005: ATOM   -5 X,Y,Z = 0.00000 0.00000 0.00000  MULT= 1  ZZ= 65.000  Tb1
 
       LMMAX 16
       LM=   0 0  2 0  2 2 -2 2  4 0  4 2 -4 2  4 4 -4 4  6 0  6 2 -6 2  6 4 -6 4  6 6 -6 6
 
:CHA005: TOTAL VALENCE CHARGE INSIDE SPHERE   5 =   4.2783    (RMT=  2.5000 )
:PCS005: PARTIAL CHARGES SPHERE =  5 S,P,D,F,PX,PY,PZ,D-Z2,D-X2Y2,D-XY,D-XZ,D-YZ
:QTL005: 1.0423 2.8565 0.2539 0.1231 0.9535 0.9536 0.9498 0.0362 0.0623 0.0622 0.0470 0.0471
        Q-s-low E-s-low   Q-p-low E-p-low   Q-d-low E-d-low   Q-f-low E-f-low
:EPL005:  0.9824 -2.4786    2.7451 -0.8280    0.0000 10.0000    0.0000 10.0000
        Q-s-hi  E-s-hi    Q-p-hi  E-p-hi    Q-d-hi  E-d-hi    Q-f-hi  E-f-hi
:EPH005:  0.0594  0.3186    0.1112  0.4039    0.2539  0.4439    0.1231  0.4701
 
                      QXX         QXY         QYY         QZZ       UP TO R
:VZZ005:            -1.71954     0.00088    -1.72008     3.43962       2.500
 
:CHA  : TOTAL VALENCE CHARGE INSIDE UNIT CELL =      39.445030
 
:SUM  : SUM OF EIGENVALUES =         -50.166817128
 

        1.ATOM      Co1                   5 CORE STATES
:1S 001: 1S                -556.839896222 Ry
:2S 001: 2S                 -64.987882228 Ry
:2PP001: 2P*                -56.218956561 Ry
:2P 001: 2P                 -55.130732141 Ry
:3S 001: 3S                  -6.546811821 Ry

        2.ATOM      Co1                   5 CORE STATES
:1S 002: 1S                -556.839901034 Ry
:2S 002: 2S                 -64.987887058 Ry
[...]
:BAN00100: 100    0.630625    0.667565  0.00000000
        Energy to separate low and high energystates:   -0.01284


:NOE  : NUMBER OF ELECTRONS          =   94.000

:FER  : F E R M I - ENERGY(TETRAH.M.)=   0.6127806829
:GMA  : POTENTIAL AND CHARGE CUT-OFF  16.00 Ry**.5
 
:POS001: ATOM   -1 X,Y,Z = 0.50000 0.00000 0.50000  MULT= 1  ZZ= 27.000  Co1
 
       LMMAX 16
       LM=   0 0  2 0  2 2 -2 2  4 0  4 2 -4 2  4 4 -4 4  6 0  6 2 -6 2  6 4 -6 4  6 6 -6 6
 
:CHA001: TOTAL VALENCE CHARGE INSIDE SPHERE   1 =   6.2185    (RMT=  2.3000 )
:PCS001: PARTIAL CHARGES SPHERE =  1 S,P,D,F,PX,PY,PZ,D-Z2,D-X2Y2,D-XY,D-XZ,D-YZ
:QTL001: 0.2318 3.2106 2.7616 0.0118 1.0601 1.0773 1.0731 0.6059 0.5658 0.5375 0.4998 0.5521
        Q-s-low E-s-low   Q-p-low E-p-low   Q-d-low E-d-low   Q-f-low E-f-low
:EPL001:  0.0000 10.0000    2.9952 -3.6018    0.0000 10.0000    0.0000 10.0000
        Q-s-hi  E-s-hi    Q-p-hi  E-p-hi    Q-d-hi  E-d-hi    Q-f-hi  E-f-hi
:EPH001:  0.2308  0.2913    0.2157  0.4455    2.7603  0.4954    0.0115  0.5017
 
                      QXX         QXY         QYY         QZZ       UP TO R
:VZZ001:             1.37937    -1.23959    -0.03943    -1.33994       2.300
 
:POS002: ATOM   -2 X,Y,Z = 0.00000 0.50000 0.50000  MULT= 1  ZZ= 27.000  Co1
 
       LMMAX 16
       LM=   0 0  2 0  2 2 -2 2  4 0  4 2 -4 2  4 4 -4 4  6 0  6 2 -6 2  6 4 -6 4  6 6 -6 6
 
:CHA002: TOTAL VALENCE CHARGE INSIDE SPHERE   2 =   6.2183    (RMT=  2.3000 )
:PCS002: PARTIAL CHARGES SPHERE =  2 S,P,D,F,PX,PY,PZ,D-Z2,D-X2Y2,D-XY,D-XZ,D-YZ
:QTL002: 0.2314 3.2105 2.7611 0.0118 1.0859 1.0517 1.0728 0.6059 0.5227 0.5807 0.5781 0.4738
        Q-s-low E-s-low   Q-p-low E-p-low   Q-d-low E-d-low   Q-f-low E-f-low
:EPL002:  0.0000 10.0000    2.9952 -3.6019    0.0000 10.0000    0.0000 10.0000
        Q-s-hi  E-s-hi    Q-p-hi  E-p-hi    Q-d-hi  E-d-hi    Q-f-hi  E-f-hi
:EPH002:  0.2311  0.2913    0.2157  0.4455    2.7604  0.4954    0.0114  0.5018
 
                      QXX         QXY         QYY         QZZ       UP TO R
:VZZ002:            -0.75835    -0.00547     2.09827    -1.33994       2.300
 
:POS003: ATOM   -3 X,Y,Z = 0.50000 0.50000 0.50000  MULT= 1  ZZ= 27.000  Co1
 
       LMMAX 16
       LM=   0 0  2 0  2 2 -2 2  4 0  4 2 -4 2  4 4 -4 4  6 0  6 2 -6 2  6 4 -6 4  6 6 -6 6
 
:CHA003: TOTAL VALENCE CHARGE INSIDE SPHERE   3 =   6.2189    (RMT=  2.3000 )
:PCS003: PARTIAL CHARGES SPHERE =  3 S,P,D,F,PX,PY,PZ,D-Z2,D-X2Y2,D-XY,D-XZ,D-YZ
:QTL003: 0.2315 3.2105 2.7614 0.0118 1.0601 1.0774 1.0728 0.6057 0.5663 0.5373 0.5001 0.5521
        Q-s-low E-s-low   Q-p-low E-p-low   Q-d-low E-d-low   Q-f-low E-f-low
:EPL003:  0.0000 10.0000    2.9952 -3.6019    0.0000 10.0000    0.0000 10.0000
        Q-s-hi  E-s-hi    Q-p-hi  E-p-hi    Q-d-hi  E-d-hi    Q-f-hi  E-f-hi
:EPH003:  0.2308  0.2914    0.2157  0.4455    2.7609  0.4954    0.0115  0.5018
 
                      QXX         QXY         QYY         QZZ       UP TO R
:VZZ003:             1.36935     1.22580    -0.04604    -1.32335       2.300
 
:POS004: ATOM   -4 X,Y,Z = 0.33333 0.66667 0.00000  MULT= 2  ZZ= 27.000  Co2
 
       LMMAX 28
       LM=   0 0  1 1 -1 1  2 0  2 2 -2 2  3 1 -3 1  3 3 -3 3  4 0  4 2 -4 2  4 4 -4 4  5 1 -5 1
         5 3 -5 3  5 5 -5 5  6 0  6 2 -6 2  6 4 -6 4  6 6 -6 6
 
:CHA004: TOTAL VALENCE CHARGE INSIDE SPHERE   4 =   6.2399    (RMT=  2.3000 )
:PCS004: PARTIAL CHARGES SPHERE =  4 S,P,D,F,PX,PY,PZ,D-Z2,D-X2Y2,D-XY,D-XZ,D-YZ
:QTL004: 0.2260 3.2057 2.7936 0.0124 1.0592 1.0596 1.0864 0.5466 0.5778 0.5782 0.5455 0.5453
        Q-s-low E-s-low   Q-p-low E-p-low   Q-d-low E-d-low   Q-f-low E-f-low
:EPL004:  0.0024 -1.0097    2.9952 -3.6002    0.0024 -1.2483    0.0000 10.0000
        Q-s-hi  E-s-hi    Q-p-hi  E-p-hi    Q-d-hi  E-d-hi    Q-f-hi  E-f-hi
:EPH004:  0.2238  0.2931    0.2091  0.4470    2.7918  0.4969    0.0106  0.5119
 
                      QXX         QXY         QYY         QZZ       UP TO R
:VZZ004:             0.22567    -0.00524     0.23178    -0.45746       2.300
 
:POS005: ATOM   -5 X,Y,Z = 0.00000 0.00000 0.00000  MULT= 1  ZZ= 65.000  Tb1
 
       LMMAX 16
       LM=   0 0  2 0  2 2 -2 2  4 0  4 2 -4 2  4 4 -4 4  6 0  6 2 -6 2  6 4 -6 4  6 6 -6 6
 
:CHA005: TOTAL VALENCE CHARGE INSIDE SPHERE   5 =   5.4181    (RMT=  2.5000 )
:PCS005: PARTIAL CHARGES SPHERE =  5 S,P,D,F,PX,PY,PZ,D-Z2,D-X2Y2,D-XY,D-XZ,D-YZ
:QTL005: 1.0496 2.8729 0.3458 1.1483 0.9590 0.9598 0.9540 0.0555 0.0801 0.0800 0.0655 0.0657
        Q-s-low E-s-low   Q-p-low E-p-low   Q-d-low E-d-low   Q-f-low E-f-low
:EPL005:  0.9824 -2.5693    2.7642 -0.9121    0.0000 10.0000    0.0000 10.0000
        Q-s-hi  E-s-hi    Q-p-hi  E-p-hi    Q-d-hi  E-d-hi    Q-f-hi  E-f-hi
:EPH005:  0.0661  0.3318    0.1081  0.4316    0.3458  0.4670    1.1483  0.5783
 
                      QXX         QXY         QYY         QZZ       UP TO R
:VZZ005:            -5.94855     0.01052    -5.96120    11.90978       2.500
 
:CHA  : TOTAL VALENCE CHARGE INSIDE UNIT CELL =      40.462118
 
:SUM  : SUM OF EIGENVALUES =         -49.176433677
 

        1.ATOM      Co1                   5 CORE STATES
:1S 001: 1S                -556.817019568 Ry
:2S 001: 2S                 -64.942475049 Ry
:2PP001: 2P*                -56.179804516 Ry
:2P 001: 2P                 -55.090994993 Ry
:3S 001: 3S                  -6.440646436 Ry

        2.ATOM      Co1                   5 CORE STATES
:1S 002: 1S                -556.817018388 Ry
:2S 002: 2S                 -64.942473854 Ry
:2PP002: 2P*                -56.179803328 Ry
:2P 002: 2P                 -55.090993806 Ry
:3S 002: 3S                  -6.440645645 Ry

        3.ATOM      Co1                   5 CORE STATES
:1S 003: 1S                -556.817014336 Ry
:2S 003: 2S                 -64.942470963 Ry
:2PP003: 2P*                -56.179802128 Ry
:2P 003: 2P                 -55.090992466 Ry
:3S 003: 3S                  -6.440614870 Ry

        4.ATOM      Co2                   5 CORE STATES
       CORE-FORCE in mRy/a.u. = |F|      Fx             Fy             Fz
:FCO004:   4.ATOM      1.296987650565     -0.650865063504      1.121851877401      0.000000000000

:1S 004: 1S                -556.814624285 Ry
:2S 004: 2S                 -64.937238118 Ry
:2PP004: 2P*                -56.175001433 Ry
:2P 004: 2P                 -55.086152691 Ry
:3S 004: 3S                  -6.436227516 Ry

        5.ATOM      Tb1                  14 CORE STATES
:1S 005: 1S               -3807.005800884 Ry
:2S 005: 2S                -630.217175413 Ry
:2PP005: 2P*               -598.802981710 Ry
:2P 005: 2P                -543.930206661 Ry
:3S 005: 3S                -139.410116631 Ry
:3PP005: 3P*               -125.755810047 Ry
:3P 005: 3P                -114.440169489 Ry
:3DD005: 3D*                -90.930146530 Ry
:3D 005: 3D                 -88.462529576 Ry
:4S 005: 4S                 -27.285353499 Ry
:4PP005: 4P*                -21.937227073 Ry
:4P 005: 4P                 -19.405903346 Ry
:4DD005: 4D*                -10.600494191 Ry
:4D 005: 4D                 -10.141376081 Ry

        1.ATOM      Co1                   5 CORE STATES
:1S 001: 1S                -556.817519985 Ry
:2S 001: 2S                 -64.875333106 Ry
:2PP001: 2P*                -56.130316529 Ry
:2P 001: 2P                 -55.039938408 Ry
:3S 001: 3S                  -6.299048449 Ry

        2.ATOM      Co1                   5 CORE STATES
:1S 002: 1S                -556.817518805 Ry
:2S 002: 2S                 -64.875332122 Ry
:2PP002: 2P*                -56.130315496 Ry
:2P 002: 2P                 -55.039937380 Ry
:3S 002: 3S                  -6.299048077 Ry

        3.ATOM      Co1                   5 CORE STATES
:1S 003: 1S                -556.817512957 Ry
:2S 003: 2S                 -64.875345697 Ry
:2PP003: 2P*                -56.130325663 Ry
:2P 003: 2P                 -55.039947836 Ry
:3S 003: 3S                  -6.299051623 Ry

        4.ATOM      Co2                   5 CORE STATES
       CORE-FORCE in mRy/a.u. = |F|      Fx             Fy             Fz
:FCO004:   4.ATOM      1.316936163322     -0.660851580812      1.139120733901      0.000000000000

:1S 004: 1S                -556.815090081 Ry
:2S 004: 2S                 -64.871864048 Ry
:2PP004: 2P*                -56.126823177 Ry
:2P 004: 2P                 -55.036447343 Ry
:3S 004: 3S                  -6.298317985 Ry

        5.ATOM      Tb1                  14 CORE STATES
:1S 005: 1S               -3807.005918316 Ry
:2S 005: 2S                -630.214040605 Ry
:2PP005: 2P*               -598.801472822 Ry
:2P 005: 2P                -543.927731101 Ry
:3S 005: 3S                -139.242360962 Ry
:3PP005: 3P*               -125.604806637 Ry
:3P 005: 3P                -114.266029241 Ry
:3DD005: 3D*                -90.805935951 Ry
:3D 005: 3D                 -88.332423430 Ry
:4S 005: 4S                 -26.904694042 Ry
:4PP005: 4P*                -21.557117106 Ry
:4P 005: 4P                 -19.030266034 Ry
:4DD005: 4D*                -10.227263383 Ry
:4D 005: 4D                  -9.769906810 Ry
:CINT001 Core Integral Atom   1 Up    5.99961216 Dn   5.999582 Total  11.99919367
:CINT002 Core Integral Atom   2 Up    5.99961216 Dn   5.999582 Total  11.99919367
:CINT003 Core Integral Atom   3 Up    5.99961216 Dn   5.999582 Total  11.99919369
:CINT004 Core Integral Atom   4 Up    5.99960942 Dn   5.999580 Total  11.99918907
:CINT005 Core Integral Atom   5 Up   22.99997712 Dn  22.999973 Total  45.99994995

       DENSITY AT NUCLEUS
        JATOM        VALENCE       SEMI-CORE          CORE           TOTAL
:RTO001:   1        8.142552        0.000000    17496.966135    17505.108687
:RTO002:   2        8.142552        0.000000    17496.966122    17505.108674
:RTO003:   3        8.143738        0.000000    17496.966569    17505.110307
:RTO004:   4        8.089012        0.000000    17496.912895    17505.001908
:RTO005:   5     1239.207671        0.000000  1219630.195921  1220869.403593

       HYPERFINE FIELDS FOR THOMSON RADIUS
:HFF001:          -10.458           0.000        -201.992        -212.450 (KGAUSS)
:HFF002:          -10.458           0.000        -201.992        -212.450 (KGAUSS)
:HFF003:           -9.828           0.000        -201.931        -211.759 (KGAUSS)
:HFF004:           52.014           0.000        -196.479        -144.464 (KGAUSS)
:HFF005:         2512.863           0.000       -2493.647          19.216 (KGAUSS)
:K-LIST:Reduced k-vector list    19745    2293
     
       CHARGES OF NEW CHARGE DENSITY
:NTO   : INTERSTITIAL      UP =     3.420009 DN =     3.908905 TOT =     7.328914
:NPC   : INTERSTITIAL      UP =    10.531938 DN =    10.029585 TOT =    20.561523
:NTO001: CHARGE SPHERE   1 UP =   13.806145 DN =   12.218186 TOT =   26.024331
:NTO002: CHARGE SPHERE   2 UP =   13.806143 DN =   12.218181 TOT =   26.024324
:NTO003: CHARGE SPHERE   3 UP =   13.806053 DN =   12.218323 TOT =   26.024376
:NTO004: CHARGE SPHERE   4 UP =   13.794658 DN =   12.239232 TOT =   26.033890
:NTO005: CHARGE SPHERE   5 UP =   34.108249 DN =   28.417937 TOT =   62.526185

:NEC01: NUCLEAR AND ELECTRONIC CHARGE    200.00000000   199.99590908 Plane Wave
     
       CHARGES OF OLD CHARGE DENSITY
:OTO   : INTERSTITIAL      UP =     3.422359 DN =     3.910875 TOT =     7.333235
:OPC   : INTERSTITIAL      UP =    10.542551 DN =    10.035125 TOT =    20.577676
:OTO001: CHARGE SPHERE   1 UP =   13.805996 DN =   12.218364 TOT =   26.024360
:OTO002: CHARGE SPHERE   2 UP =   13.805994 DN =   12.218366 TOT =   26.024360
:OTO003: CHARGE SPHERE   3 UP =   13.805913 DN =   12.218473 TOT =   26.024386
:OTO004: CHARGE SPHERE   4 UP =   13.794472 DN =   12.239477 TOT =   26.033949
:OTO005: CHARGE SPHERE   5 UP =   34.107729 DN =   28.418032 TOT =   62.525761

:NEC02: NUCLEAR AND ELECTRONIC CHARGE    200.00000000   200.00000000
     
       CONVERGENCE TEST
:DTO001: DIFFERENCE SPHERE  1 UP =  0.0003076 DN =  0.0002298 TOT =  0.0005374
:DTO002: DIFFERENCE SPHERE  2 UP =  0.0003064 DN =  0.0002404 TOT =  0.0005467
:DTO003: DIFFERENCE SPHERE  3 UP =  0.0003106 DN =  0.0001751 TOT =  0.0004857
:DTO004: DIFFERENCE SPHERE  4 UP =  0.0003213 DN =  0.0003087 TOT =  0.0006300
:DTO005: DIFFERENCE SPHERE  5 UP =  0.0005484 DN =  0.0004958 TOT =  0.0010442

:DIS  :  CHARGE DISTANCE      (  0.0005484 for atom    5 spin 1)      0.0012913
 
******************************************************
* Multisecant Mixing Release 10.8.9                  *
* Standard Mode with step bound                      *
* Multisecant MSR1 Algorithm                         *
* Regularization       2.000E-04                     *
* Minimum Greed        1.000E-03                     *
* Max Number of Memory Steps    8                    *
******************************************************
 
:INFOC: Max vcoul   0.00010 for atom   4 average:   0.00007

:FULLRMS/Atom   0.0011457356
:PLANE:  PW /ATOM     1.08577 DISTAN   3.81E-04 %  3.51E-02
:CHARG:  CLM/ATOM   260.58413 DISTAN   6.96E-04 %  2.67E-04
:INFOF Fractnow,Tolerror,TolReject,qtot     0.536     1.667     3.000     0.001 F F F

Step History
        Dmix         Dmixt        Red     Pred      Step      Lambda    MagAbs    Beta
 25   1.0982E-02   1.0982E-02  8.77E-01  8.47E-01  7.62E-01  1.00E+00  1.06E-02  1.00E+00
 26   2.1965E-02   2.1965E-02  1.17E+00  8.05E-01  6.97E-01  1.00E+00  8.47E-03  1.00E+00
 27   1.7030E-02   1.7030E-02  9.26E-01  5.79E-01  3.92E-01  1.00E+00  5.56E-03  7.33E-01
 28   3.4060E-02   3.4060E-02  1.14E+00  4.96E-01  3.93E-01  1.00E+00  5.16E-03  1.00E+00
 29   3.7682E-02   3.7682E-02  8.09E-01  3.80E-01  2.98E-01  1.00E+00  4.46E-03  1.00E+00
 30   7.5364E-02   7.5364E-02  1.45E+00  3.80E-01  3.17E-01  1.00E+00  3.84E-03  1.00E+00
 31   3.7682E-02   3.7682E-02  2.50E-01  2.44E-01  2.40E-01  1.12E+00  4.20E-03  1.00E+00
 32   7.5364E-02   7.5364E-02  1.19E+00  8.86E-01  6.49E-01  1.02E+00  2.85E-03  1.00E+00
 33   3.7796E-02   3.4395E-02  1.00E+00  5.55E-01  3.37E-01  1.03E+00  1.77E-03  1.00E+00
:NOTE :  Number of Memory Steps    8 Skipping   24
:INFOSL ,t1/t2,syy/sys,sqrt(syy/sss)     0.001     0.002     0.382     6.458     4.201     1.537     6.458     4.229     1.527

:PREDicted Charge, CTotal, PW Trust   9.38E-04   3.06E-03   2.23E-03
:PREDicted DMix, Beta, BLim           1.66E-01   1.11E+00   5.48E-01

Eigenvalues, unscaled except for SY+YY with Slambda=   1.03358 Ylambda=   1.00000
   #     SY Real       SY Imag         SS            YY        SY+YY Real     SY+YY Imag
   1   2.41444E+00   0.00000E+00   2.51175E+00   4.14666E+00   6.60133E+00   0.00000E+00
   2   2.41550E-01   0.00000E+00   1.32825E-01   6.82075E-01   9.05535E-01   0.00000E+00
   3   7.26756E-02   0.00000E+00   6.83857E-02   2.55814E-01   3.82415E-01   0.00000E+00
   4   7.96149E-03   0.00000E+00   4.44227E-03   4.36520E-02   6.15591E-02   0.00000E+00
   5   3.33044E-03   0.00000E+00   1.19679E-03   2.87941E-02   3.63259E-02   0.00000E+00
   6   2.09089E-03   0.00000E+00   1.34591E-04   8.36563E-03   1.22944E-02   0.00000E+00
   7   2.57577E-05   0.00000E+00   4.83858E-05   3.97186E-04   4.23922E-04   0.00000E+00
   8   5.46510E-05   0.00000E+00   3.55778E-06   4.01049E-05   1.16906E-04   0.00000E+00

:SING : Singular value  6.673E+00  Weight  1.000E+00  Projection  1.964E-04
:SING : Singular value  9.017E-01  Weight  1.000E+00  Projection -3.644E-04
:SING : Singular value  3.808E-01  Weight  1.000E+00  Projection -2.349E-04
:SING : Singular value  6.193E-02  Weight  9.995E-01  Projection -3.763E-04
:SING : Singular value  3.605E-02  Weight  9.986E-01  Projection  1.333E-03
:SING : Singular value  1.229E-02  Weight  9.883E-01  Projection -9.264E-04
:SING : Singular value  4.251E-04  Weight  9.212E-02  Projection -1.459E-03
:SING : Singular value  1.165E-04  Weight  7.569E-03  Projection  2.348E-03

:RANK :  ACTIVE   6.09/8  =  76.08 % ; YY RANK   6.05/8  =  75.68 %
:TRUST:  Step  6.2E-01 Charge  1.6E-03 (e) CTO  4.6E-03 (e) PW  6.5E-03 (e)
:DIRM :  MEMORY  8/8  RED  0.54 PRED  0.55 NEXT  0.99
:DIRP : |MSR1|= 1.207E-04 |PRATT|= 1.346E-03 ANGLE=  82.1 DEGREES
:DIRQ : |MSR1|= 4.026E-04 |PRATT|= 2.462E-03 ANGLE=  26.5 DEGREES
:DIRT : |MSR1|= 4.203E-04 |PRATT|= 2.806E-03 ANGLE=  39.6 DEGREES
:MIX  :  MSR1   REGULARIZATION:  1.33E-03 GREED: 0.07559  Newton 1.00  0.1497                
     
       CHARGES OF MIXED CHARGE DENSITY
:CTO   : INTERSTITIAL      UP =     3.422289 DN =     3.910911 TOT =     7.333200
:CPC   : INTERSTITIAL      UP =    10.542464 DN =    10.035189 TOT =    20.577652
:CTO001: CHARGE SPHERE   1 UP =   13.806022 DN =   12.218341 TOT =   26.024364
:CTO002: CHARGE SPHERE   2 UP =   13.806021 DN =   12.218343 TOT =   26.024363
:CTO003: CHARGE SPHERE   3 UP =   13.805938 DN =   12.218462 TOT =   26.024400
:CTO004: CHARGE SPHERE   4 UP =   13.794512 DN =   12.239444 TOT =   26.033956
:CTO005: CHARGE SPHERE   5 UP =   34.107755 DN =   28.418007 TOT =   62.525761

       SPIN MAGNETIC MOMENTS OF MIXED CHARGE DENSITY
:MMINT:  MAGNETIC MOMENT IN INTERSTITIAL  =   -0.48862
:MMI001: MAGNETIC MOMENT IN SPHERE   1    =    1.58768
:MMI002: MAGNETIC MOMENT IN SPHERE   2    =    1.58768
:MMI003: MAGNETIC MOMENT IN SPHERE   3    =    1.58748
:MMI004: MAGNETIC MOMENT IN SPHERE   4    =    1.55507
:MMI005: MAGNETIC MOMENT IN SPHERE   5    =    5.68975
:MMTOT:  SPIN MAGNETIC MOMENT IN CELL     =   13.07410

:NEC03: NUCLEAR AND ELECTRONIC CHARGE    200.00000000   200.00000000

PW CHANGE     H    K    L      Current       Change    Residue
:PUP001:      0    0    0  2.44807622E-02 -2.766E-07 -9.073E-06
:PUP002:     -1    0    0  2.72302067E-03  1.486E-07 -3.536E-08
:PUP003:     -1    1    0  2.72589494E-03  1.317E-07 -3.011E-07
:PUP004:      0   -1    0  2.72302017E-03  1.488E-07 -4.444E-08
:PUP005:      0    0   -1  6.34973466E-03  3.074E-07 -1.498E-06
:PUP006:     -1    0   -1  6.87675856E-03  8.785E-08 -2.704E-06
:PUP007:     -1    0    1  6.87680955E-03  8.946E-08 -2.696E-06
:PUP008:     -1    1   -1  6.87627675E-03  7.805E-08 -2.796E-06
:PUP009:     -1    1    1  6.87620171E-03  8.292E-08 -2.767E-06
:PUP010:      0   -1   -1  6.87680868E-03  8.926E-08 -2.699E-06
:PUP011:      0   -1    1  6.87675771E-03  8.763E-08 -2.707E-06
:PUP012:     -2    1    0  6.28501191E-03  1.153E-07 -2.919E-06
  
:PDN001:      0    0    0  2.44480641E-02  1.741E-07  4.720E-07
:PDN002:     -1    0    0  3.52813515E-03 -8.624E-08 -2.243E-06
:PDN003:     -1    1    0  3.52683793E-03 -8.310E-08 -2.520E-06
:PDN004:      0   -1    0  3.52814655E-03 -8.526E-08 -2.254E-06
:PDN005:      0    0   -1  6.67039694E-03  1.178E-07 -1.471E-06
:PDN006:     -1    0   -1  6.81297433E-03  7.208E-08 -1.367E-06
:PDN007:     -1    0    1  6.81296156E-03  6.991E-08 -1.377E-06
:PDN008:     -1    1   -1  6.81306771E-03  4.864E-08 -1.491E-06
:PDN009:     -1    1    1  6.81304462E-03  4.491E-08 -1.508E-06
:PDN010:      0   -1   -1  6.81296450E-03  6.781E-08 -1.387E-06
:PDN011:      0   -1    1  6.81297717E-03  7.005E-08 -1.378E-06
:PDN012:     -2    1    0  6.03263430E-03  1.350E-07 -1.027E-06

:ENE  : ********** TOTAL ENERGY IN Ry =       -37373.11239035

:FOR001:   1.ATOM          0.000          0.000          0.000          0.000 partial forces
:FOR002:   2.ATOM          0.000          0.000          0.000          0.000 partial forces
:FOR003:   3.ATOM          0.000          0.000          0.000          0.000 partial forces
:FOR004:   4.ATOM          0.419          0.213         -0.361          0.000 partial forces
:FOR005:   5.ATOM          0.000          0.000          0.000          0.000 partial forces
       TOTAL FORCE WITH RESPECT TO THE GLOBAL COORDINATE SYSTEM:
:FGL001:   1.ATOM                 0.000000000     0.000000000     0.000000000 partial forces
:FGL002:   2.ATOM                 0.000000000     0.000000000     0.000000000 partial forces
:FGL003:   3.ATOM                 0.000000000     0.000000000     0.000000000 partial forces
:FGL004:   4.ATOM                 0.246089668    -0.237603609     0.000000000 partial forces
:FGL005:   5.ATOM                 0.000000000     0.000000000     0.000000000 partial forces
